unknown system                          
   5.63900000000000     
     1.000000    0.000000    0.000000
     0.000000    1.000000    0.000000
     0.000000    0.000000    1.000000
   Na   Cl
     4     4
Direct
  0.000000  0.000000  0.000000
  0.000000  0.500000  0.500000
  0.500000  0.000000  0.500000
  0.500000  0.500000  0.000000
  0.500000  0.500000  0.500000
  0.500000  0.000000  0.000000
  0.000000  0.500000  0.000000
  0.000000  0.000000  0.500000
 
   48   48   48
  2123.1      2011.2      1699.0      1255.7      786.16      397.64      154.05      49.575      23.074      14.958    
  13.739      17.356      24.689      35.991      53.726      81.956      125.34      186.05      252.77      302.69    
  307.91      251.69      148.58      47.491      5.3548      47.491      148.58      251.69      307.91      302.69    
  252.77      186.05      125.34      81.956      53.726      35.991      24.689      17.356      13.739      14.958    
  23.074      49.575      154.05      397.64      786.16      1255.7      1699.0      2011.2      2011.2      1903.2    
  1602.5      1178.0      731.96      366.53      140.61      45.878      22.127      14.514      13.466      17.042    
  24.220      35.276      52.570      79.977      121.99      181.17      247.38      299.17      310.27      264.58    
  174.74      85.084      47.491      85.084      174.74      264.58      310.27      299.17      247.38      181.17    
  121.99      79.977      52.570      35.276      24.220      17.042      13.466      14.514      22.127      45.878    
  140.61      366.53      731.96      1178.0      1602.5      1903.2      1699.0      1602.5      1336.3      966.64    
  586.97      285.25      106.76      37.044      19.566      13.303      12.699      16.146      22.879      33.234    
  49.283      74.394      112.57      167.13      231.16      286.84      312.06      292.39      235.71      174.74    
  148.58      174.74      235.71      292.39      312.06      286.84      231.16      167.13      112.57      74.394    
  49.283      33.234      22.879      16.146      12.699      13.303      19.566      37.044      106.76      285.25    
  586.97      966.64      1336.3      1602.5      1255.7      1178.0      966.64      680.51      397.45      184.16    
  67.879      27.714      16.100      11.624      11.573      14.792      20.848      30.146      44.355      66.144    
  98.793      145.82      204.73      262.43      302.01      311.20      292.39      264.58      251.69      264.58    
  292.39      311.20      302.01      262.43      204.73      145.82      98.793      66.144      44.355      30.146    
  20.848      14.792      11.573      11.624      16.100      27.714      67.879      184.16      397.45      680.51    
  966.64      1178.0      786.16      731.96      586.97      397.45      220.01      97.158      38.627      20.189    
  12.554      9.8313      10.259      13.151      18.381      26.394      38.442      56.451      82.867      120.57    
  170.60      225.28      272.43      302.01      312.06      310.27      307.91      310.27      312.06      302.01    
  272.43      225.28      170.60      120.57      82.867      56.451      38.442      26.394      18.381      13.151    
  10.259      9.8313      12.554      20.189      38.627      97.158      220.01      397.45      586.97      731.96    
  397.64      366.53      285.25      184.16      97.158      44.585      23.299      14.025      9.5593      8.2029    
  8.9210      11.406      15.746      22.384      32.207      46.490      66.881      95.389      133.69      179.67    
  225.28      262.43      286.84      299.17      302.69      299.17      286.84      262.43      225.28      179.67    
  133.69      95.389      66.881      46.490      32.207      22.384      15.746      11.406      8.9210      8.2029    
  9.5593      14.025      23.299      44.585      97.158      184.16      285.25      366.53      154.05      140.61    
  106.76      67.879      38.627      23.299      14.730      9.7079      7.4041      6.8964      7.6924      9.7254    
  13.187      18.474      26.196      37.146      52.326      72.952      100.09      133.69      170.60      204.73    
  231.16      247.38      252.77      247.38      231.16      204.73      170.60      133.69      100.09      72.952    
  52.326      37.146      26.196      18.474      13.187      9.7254      7.6924      6.8964      7.4041      9.7079    
  14.730      23.299      38.627      67.879      106.76      140.61      49.575      45.878      37.044      27.714    
  20.189      14.025      9.7079      7.1993      6.0844      5.9668      6.6713      8.2443      10.891      14.936    
  20.794      28.948      39.958      54.455      72.952      95.389      120.57      145.82      167.13      181.17    
  186.05      181.17      167.13      145.82      120.57      95.389      72.952      54.455      39.958      28.948    
  20.794      14.936      10.891      8.2443      6.6713      5.9668      6.0844      7.1993      9.7079      14.025    
  20.189      27.714      37.044      45.878      23.074      22.127      19.566      16.100      12.554      9.5593    
  7.4041      6.0844      5.4630      5.4195      5.9255      7.0572      8.9825      11.942      16.221      22.122    
  29.943      39.958      52.326      66.881      82.867      98.793      112.57      121.99      125.34      121.99    
  112.57      98.793      82.867      66.881      52.326      39.958      29.943      22.122      16.221      11.942    
  8.9825      7.0572      5.9255      5.4195      5.4630      6.0844      7.4041      9.5593      12.554      16.100    
  19.566      22.127      14.958      14.514      13.303      11.624      9.8313      8.2029      6.8964      5.9668    
  5.4195      5.2556      5.4997      6.2162      7.5184      9.5685      12.561      16.691      22.122      28.948    
  37.146      46.490      56.451      66.144      74.394      79.977      81.956      79.977      74.394      66.144    
  56.451      46.490      37.146      28.948      22.122      16.691      12.561      9.5685      7.5184      6.2162    
  5.4997      5.2556      5.4195      5.9668      6.8964      8.2029      9.8313      11.624      13.303      14.514    
  13.739      13.466      12.699      11.573      10.259      8.9210      7.6924      6.6713      5.9255      5.4997    
  5.4260      5.7407      6.5046      7.8128      9.7893      12.561      16.221      20.794      26.196      32.207    
  38.442      44.355      49.283      52.570      53.726      52.570      49.283      44.355      38.442      32.207    
  26.196      20.794      16.221      12.561      9.7893      7.8128      6.5046      5.7407      5.4260      5.4997    
  5.9255      6.6713      7.6924      8.9210      10.259      11.573      12.699      13.466      17.356      17.042    
  16.146      14.792      13.151      11.406      9.7254      8.2443      7.0572      6.2162      5.7407      5.6361    
  5.9163      6.6202      7.8128      9.5685      11.942      14.936      18.474      22.384      26.394      30.146    
  33.234      35.276      35.991      35.276      33.234      30.146      26.394      22.384      18.474      14.936    
  11.942      9.5685      7.8128      6.6202      5.9163      5.6361      5.7407      6.2162      7.0572      8.2443    
  9.7254      11.406      13.151      14.792      16.146      17.042      24.689      24.220      22.879      20.848    
  18.381      15.746      13.187      10.891      8.9825      7.5184      6.5046      5.9163      5.7244      5.9163    
  6.5046      7.5184      8.9825      10.891      13.187      15.746      18.381      20.848      22.879      24.220    
  24.689      24.220      22.879      20.848      18.381      15.746      13.187      10.891      8.9825      7.5184    
  6.5046      5.9163      5.7244      5.9163      6.5046      7.5184      8.9825      10.891      13.187      15.746    
  18.381      20.848      22.879      24.220      35.991      35.276      33.234      30.146      26.394      22.384    
  18.474      14.936      11.942      9.5685      7.8128      6.6202      5.9163      5.6361      5.7407      6.2162    
  7.0572      8.2443      9.7254      11.406      13.151      14.792      16.146      17.042      17.356      17.042    
  16.146      14.792      13.151      11.406      9.7254      8.2443      7.0572      6.2162      5.7407      5.6361    
  5.9163      6.6202      7.8128      9.5685      11.942      14.936      18.474      22.384      26.394      30.146    
  33.234      35.276      53.726      52.570      49.283      44.355      38.442      32.207      26.196      20.794    
  16.221      12.561      9.7893      7.8128      6.5046      5.7407      5.4260      5.4997      5.9255      6.6713    
  7.6924      8.9210      10.259      11.573      12.699      13.466      13.739      13.466      12.699      11.573    
  10.259      8.9210      7.6924      6.6713      5.9255      5.4997      5.4260      5.7407      6.5046      7.8128    
  9.7893      12.561      16.221      20.794      26.196      32.207      38.442      44.355      49.283      52.570    
  81.956      79.977      74.394      66.144      56.451      46.490      37.146      28.948      22.122      16.691    
  12.561      9.5685      7.5184      6.2162      5.4997      5.2556      5.4195      5.9668      6.8964      8.2029    
  9.8313      11.624      13.303      14.514      14.958      14.514      13.303      11.624      9.8313      8.2029    
  6.8964      5.9668      5.4195      5.2556      5.4997      6.2162      7.5184      9.5685      12.561      16.691    
  22.122      28.948      37.146      46.490      56.451      66.144      74.394      79.977      125.34      121.99    
  112.57      98.793      82.867      66.881      52.326      39.958      29.943      22.122      16.221      11.942    
  8.9825      7.0572      5.9255      5.4195      5.4630      6.0844      7.4041      9.5593      12.554      16.100    
  19.566      22.127      23.074      22.127      19.566      16.100      12.554      9.5593      7.4041      6.0844    
  5.4630      5.4195      5.9255      7.0572      8.9825      11.942      16.221      22.122      29.943      39.958    
  52.326      66.881      82.867      98.793      112.57      121.99      186.05      181.17      167.13      145.82    
  120.57      95.389      72.952      54.455      39.958      28.948      20.794      14.936      10.891      8.2443    
  6.6713      5.9668      6.0844      7.1993      9.7079      14.025      20.189      27.714      37.044      45.878    
  49.575      45.878      37.044      27.714      20.189      14.025      9.7079      7.1993      6.0844      5.9668    
  6.6713      8.2443      10.891      14.936      20.794      28.948      39.958      54.455      72.952      95.389    
  120.57      145.82      167.13      181.17      252.77      247.38      231.16      204.73      170.60      133.69    
  100.09      72.952      52.326      37.146      26.196      18.474      13.187      9.7254      7.6924      6.8964    
  7.4041      9.7079      14.730      23.299      38.627      67.879      106.76      140.61      154.05      140.61    
  106.76      67.879      38.627      23.299      14.730      9.7079      7.4041      6.8964      7.6924      9.7254    
  13.187      18.474      26.196      37.146      52.326      72.952      100.09      133.69      170.60      204.73    
  231.16      247.38      302.69      299.17      286.84      262.43      225.28      179.67      133.69      95.389    
  66.881      46.490      32.207      22.384      15.746      11.406      8.9210      8.2029      9.5593      14.025    
  23.299      44.585      97.158      184.16      285.25      366.53      397.64      366.53      285.25      184.16    
  97.158      44.585      23.299      14.025      9.5593      8.2029      8.9210      11.406      15.746      22.384    
  32.207      46.490      66.881      95.389      133.69      179.67      225.28      262.43      286.84      299.17    
  307.91      310.27      312.06      302.01      272.43      225.28      170.60      120.57      82.867      56.451    
  38.442      26.394      18.381      13.151      10.259      9.8313      12.554      20.189      38.627      97.158    
  220.01      397.45      586.97      731.96      786.16      731.96      586.97      397.45      220.01      97.158    
  38.627      20.189      12.554      9.8313      10.259      13.151      18.381      26.394      38.442      56.451    
  82.867      120.57      170.60      225.28      272.43      302.01      312.06      310.27      251.69      264.58    
  292.39      311.20      302.01      262.43      204.73      145.82      98.793      66.144      44.355      30.146    
  20.848      14.792      11.573      11.624      16.100      27.714      67.879      184.16      397.45      680.51    
  966.64      1178.0      1255.7      1178.0      966.64      680.51      397.45      184.16      67.879      27.714    
  16.100      11.624      11.573      14.792      20.848      30.146      44.355      66.144      98.793      145.82    
  204.73      262.43      302.01      311.20      292.39      264.58      148.58      174.74      235.71      292.39    
  312.06      286.84      231.16      167.13      112.57      74.394      49.283      33.234      22.879      16.146    
  12.699      13.303      19.566      37.044      106.76      285.25      586.97      966.64      1336.3      1602.5    
  1699.0      1602.5      1336.3      966.64      586.97      285.25      106.76      37.044      19.566      13.303    
  12.699      16.146      22.879      33.234      49.283      74.394      112.57      167.13      231.16      286.84    
  312.06      292.39      235.71      174.74      47.491      85.084      174.74      264.58      310.27      299.17    
  247.38      181.17      121.99      79.977      52.570      35.276      24.220      17.042      13.466      14.514    
  22.127      45.878      140.61      366.53      731.96      1178.0      1602.5      1903.2      2011.2      1903.2    
  1602.5      1178.0      731.96      366.53      140.61      45.878      22.127      14.514      13.466      17.042    
  24.220      35.276      52.570      79.977      121.99      181.17      247.38      299.17      310.27      264.58    
  174.74      85.084      5.3548      47.491      148.58      251.69      307.91      302.69      252.77      186.05    
  125.34      81.956      53.726      35.991      24.689      17.356      13.739      14.958      23.074      49.575    
  154.05      397.64      786.16      1255.7      1699.0      2011.2      2123.1      2011.2      1699.0      1255.7    
  786.16      397.64      154.05      49.575      23.074      14.958      13.739      17.356      24.689      35.991    
  53.726      81.956      125.34      186.05      252.77      302.69      307.91      251.69      148.58      47.491    
  47.491      85.084      174.74      264.58      310.27      299.17      247.38      181.17      121.99      79.977    
  52.570      35.276      24.220      17.042      13.466      14.514      22.127      45.878      140.61      366.53    
  731.96      1178.0      1602.5      1903.2      2011.2      1903.2      1602.5      1178.0      731.96      366.53    
  140.61      45.878      22.127      14.514      13.466      17.042      24.220      35.276      52.570      79.977    
  121.99      181.17      247.38      299.17      310.27      264.58      174.74      85.084      148.58      174.74    
  235.71      292.39      312.06      286.84      231.16      167.13      112.57      74.394      49.283      33.234    
  22.879      16.146      12.699      13.303      19.566      37.044      106.76      285.25      586.97      966.64    
  1336.3      1602.5      1699.0      1602.5      1336.3      966.64      586.97      285.25      106.76      37.044    
  19.566      13.303      12.699      16.146      22.879      33.234      49.283      74.394      112.57      167.13    
  231.16      286.84      312.06      292.39      235.71      174.74      251.69      264.58      292.39      311.20    
  302.01      262.43      204.73      145.82      98.793      66.144      44.355      30.146      20.848      14.792    
  11.573      11.624      16.100      27.714      67.879      184.16      397.45      680.51      966.64      1178.0    
  1255.7      1178.0      966.64      680.51      397.45      184.16      67.879      27.714      16.100      11.624    
  11.573      14.792      20.848      30.146      44.355      66.144      98.793      145.82      204.73      262.43    
  302.01      311.20      292.39      264.58      307.91      310.27      312.06      302.01      272.43      225.28    
  170.60      120.57      82.867      56.451      38.442      26.394      18.381      13.151      10.259      9.8313    
  12.554      20.189      38.627      97.158      220.01      397.45      586.97      731.96      786.16      731.96    
  586.97      397.45      220.01      97.158      38.627      20.189      12.554      9.8313      10.259      13.151    
  18.381      26.394      38.442      56.451      82.867      120.57      170.60      225.28      272.43      302.01    
  312.06      310.27      302.69      299.17      286.84      262.43      225.28      179.67      133.69      95.389    
  66.881      46.490      32.207      22.384      15.746      11.406      8.9210      8.2029      9.5593      14.025    
  23.299      44.585      97.158      184.16      285.25      366.53      397.64      366.53      285.25      184.16    
  97.158      44.585      23.299      14.025      9.5593      8.2029      8.9210      11.406      15.746      22.384    
  32.207      46.490      66.881      95.389      133.69      179.67      225.28      262.43      286.84      299.17    
  252.77      247.38      231.16      204.73      170.60      133.69      100.09      72.952      52.326      37.146    
  26.196      18.474      13.187      9.7254      7.6924      6.8964      7.4041      9.7079      14.730      23.299    
  38.627      67.879      106.76      140.61      154.05      140.61      106.76      67.879      38.627      23.299    
  14.730      9.7079      7.4041      6.8964      7.6924      9.7254      13.187      18.474      26.196      37.146    
  52.326      72.952      100.09      133.69      170.60      204.73      231.16      247.38      186.05      181.17    
  167.13      145.82      120.57      95.389      72.952      54.455      39.958      28.948      20.794      14.936    
  10.891      8.2443      6.6713      5.9668      6.0844      7.1993      9.7079      14.025      20.189      27.714    
  37.044      45.878      49.575      45.878      37.044      27.714      20.189      14.025      9.7079      7.1993    
  6.0844      5.9668      6.6713      8.2443      10.891      14.936      20.794      28.948      39.958      54.455    
  72.952      95.389      120.57      145.82      167.13      181.17      125.34      121.99      112.57      98.793    
  82.867      66.881      52.326      39.958      29.943      22.122      16.221      11.942      8.9825      7.0572    
  5.9255      5.4195      5.4630      6.0844      7.4041      9.5593      12.554      16.100      19.566      22.127    
  23.074      22.127      19.566      16.100      12.554      9.5593      7.4041      6.0844      5.4630      5.4195    
  5.9255      7.0572      8.9825      11.942      16.221      22.122      29.943      39.958      52.326      66.881    
  82.867      98.793      112.57      121.99      81.956      79.977      74.394      66.144      56.451      46.490    
  37.146      28.948      22.122      16.691      12.561      9.5685      7.5184      6.2162      5.4997      5.2556    
  5.4195      5.9668      6.8964      8.2029      9.8313      11.624      13.303      14.514      14.958      14.514    
  13.303      11.624      9.8313      8.2029      6.8964      5.9668      5.4195      5.2556      5.4997      6.2162    
  7.5184      9.5685      12.561      16.691      22.122      28.948      37.146      46.490      56.451      66.144    
  74.394      79.977      53.726      52.570      49.283      44.355      38.442      32.207      26.196      20.794    
  16.221      12.561      9.7893      7.8128      6.5046      5.7407      5.4260      5.4997      5.9255      6.6713    
  7.6924      8.9210      10.259      11.573      12.699      13.466      13.739      13.466      12.699      11.573    
  10.259      8.9210      7.6924      6.6713      5.9255      5.4997      5.4260      5.7407      6.5046      7.8128    
  9.7893      12.561      16.221      20.794      26.196      32.207      38.442      44.355      49.283      52.570    
  35.991      35.276      33.234      30.146      26.394      22.384      18.474      14.936      11.942      9.5685    
  7.8128      6.6202      5.9163      5.6361      5.7407      6.2162      7.0572      8.2443      9.7254      11.406    
  13.151      14.792      16.146      17.042      17.356      17.042      16.146      14.792      13.151      11.406    
  9.7254      8.2443      7.0572      6.2162      5.7407      5.6361      5.9163      6.6202      7.8128      9.5685    
  11.942      14.936      18.474      22.384      26.394      30.146      33.234      35.276      24.689      24.220    
  22.879      20.848      18.381      15.746      13.187      10.891      8.9825      7.5184      6.5046      5.9163    
  5.7244      5.9163      6.5046      7.5184      8.9825      10.891      13.187      15.746      18.381      20.848    
  22.879      24.220      24.689      24.220      22.879      20.848      18.381      15.746      13.187      10.891    
  8.9825      7.5184      6.5046      5.9163      5.7244      5.9163      6.5046      7.5184      8.9825      10.891    
  13.187      15.746      18.381      20.848      22.879      24.220      17.356      17.042      16.146      14.792    
  13.151      11.406      9.7254      8.2443      7.0572      6.2162      5.7407      5.6361      5.9163      6.6202    
  7.8128      9.5685      11.942      14.936      18.474      22.384      26.394      30.146      33.234      35.276    
  35.991      35.276      33.234      30.146      26.394      22.384      18.474      14.936      11.942      9.5685    
  7.8128      6.6202      5.9163      5.6361      5.7407      6.2162      7.0572      8.2443      9.7254      11.406    
  13.151      14.792      16.146      17.042      13.739      13.466      12.699      11.573      10.259      8.9210    
  7.6924      6.6713      5.9255      5.4997      5.4260      5.7407      6.5046      7.8128      9.7893      12.561    
  16.221      20.794      26.196      32.207      38.442      44.355      49.283      52.570      53.726      52.570    
  49.283      44.355      38.442      32.207      26.196      20.794      16.221      12.561      9.7893      7.8128    
  6.5046      5.7407      5.4260      5.4997      5.9255      6.6713      7.6924      8.9210      10.259      11.573    
  12.699      13.466      14.958      14.514      13.303      11.624      9.8313      8.2029      6.8964      5.9668    
  5.4195      5.2556      5.4997      6.2162      7.5184      9.5685      12.561      16.691      22.122      28.948    
  37.146      46.490      56.451      66.144      74.394      79.977      81.956      79.977      74.394      66.144    
  56.451      46.490      37.146      28.948      22.122      16.691      12.561      9.5685      7.5184      6.2162    
  5.4997      5.2556      5.4195      5.9668      6.8964      8.2029      9.8313      11.624      13.303      14.514    
  23.074      22.127      19.566      16.100      12.554      9.5593      7.4041      6.0844      5.4630      5.4195    
  5.9255      7.0572      8.9825      11.942      16.221      22.122      29.943      39.958      52.326      66.881    
  82.867      98.793      112.57      121.99      125.34      121.99      112.57      98.793      82.867      66.881    
  52.326      39.958      29.943      22.122      16.221      11.942      8.9825      7.0572      5.9255      5.4195    
  5.4630      6.0844      7.4041      9.5593      12.554      16.100      19.566      22.127      49.575      45.878    
  37.044      27.714      20.189      14.025      9.7079      7.1993      6.0844      5.9668      6.6713      8.2443    
  10.891      14.936      20.794      28.948      39.958      54.455      72.952      95.389      120.57      145.82    
  167.13      181.17      186.05      181.17      167.13      145.82      120.57      95.389      72.952      54.455    
  39.958      28.948      20.794      14.936      10.891      8.2443      6.6713      5.9668      6.0844      7.1993    
  9.7079      14.025      20.189      27.714      37.044      45.878      154.05      140.61      106.76      67.879    
  38.627      23.299      14.730      9.7079      7.4041      6.8964      7.6924      9.7254      13.187      18.474    
  26.196      37.146      52.326      72.952      100.09      133.69      170.60      204.73      231.16      247.38    
  252.77      247.38      231.16      204.73      170.60      133.69      100.09      72.952      52.326      37.146    
  26.196      18.474      13.187      9.7254      7.6924      6.8964      7.4041      9.7079      14.730      23.299    
  38.627      67.879      106.76      140.61      397.64      366.53      285.25      184.16      97.158      44.585    
  23.299      14.025      9.5593      8.2029      8.9210      11.406      15.746      22.384      32.207      46.490    
  66.881      95.389      133.69      179.67      225.28      262.43      286.84      299.17      302.69      299.17    
  286.84      262.43      225.28      179.67      133.69      95.389      66.881      46.490      32.207      22.384    
  15.746      11.406      8.9210      8.2029      9.5593      14.025      23.299      44.585      97.158      184.16    
  285.25      366.53      786.16      731.96      586.97      397.45      220.01      97.158      38.627      20.189    
  12.554      9.8313      10.259      13.151      18.381      26.394      38.442      56.451      82.867      120.57    
  170.60      225.28      272.43      302.01      312.06      310.27      307.91      310.27      312.06      302.01    
  272.43      225.28      170.60      120.57      82.867      56.451      38.442      26.394      18.381      13.151    
  10.259      9.8313      12.554      20.189      38.627      97.158      220.01      397.45      586.97      731.96    
  1255.7      1178.0      966.64      680.51      397.45      184.16      67.879      27.714      16.100      11.624    
  11.573      14.792      20.848      30.146      44.355      66.144      98.793      145.82      204.73      262.43    
  302.01      311.20      292.39      264.58      251.69      264.58      292.39      311.20      302.01      262.43    
  204.73      145.82      98.793      66.144      44.355      30.146      20.848      14.792      11.573      11.624    
  16.100      27.714      67.879      184.16      397.45      680.51      966.64      1178.0      1699.0      1602.5    
  1336.3      966.64      586.97      285.25      106.76      37.044      19.566      13.303      12.699      16.146    
  22.879      33.234      49.283      74.394      112.57      167.13      231.16      286.84      312.06      292.39    
  235.71      174.74      148.58      174.74      235.71      292.39      312.06      286.84      231.16      167.13    
  112.57      74.394      49.283      33.234      22.879      16.146      12.699      13.303      19.566      37.044    
  106.76      285.25      586.97      966.64      1336.3      1602.5      2011.2      1903.2      1602.5      1178.0    
  731.96      366.53      140.61      45.878      22.127      14.514      13.466      17.042      24.220      35.276    
  52.570      79.977      121.99      181.17      247.38      299.17      310.27      264.58      174.74      85.084    
  47.491      85.084      174.74      264.58      310.27      299.17      247.38      181.17      121.99      79.977    
  52.570      35.276      24.220      17.042      13.466      14.514      22.127      45.878      140.61      366.53    
  731.96      1178.0      1602.5      1903.2      2011.2      1903.2      1602.5      1178.0      731.96      366.53    
  140.61      45.878      22.127      14.514      13.466      17.042      24.220      35.276      52.570      79.977    
  121.99      181.17      247.38      299.17      310.27      264.58      174.74      85.084      47.491      85.084    
  174.74      264.58      310.27      299.17      247.38      181.17      121.99      79.977      52.570      35.276    
  24.220      17.042      13.466      14.514      22.127      45.878      140.61      366.53      731.96      1178.0    
  1602.5      1903.2      1903.2      1799.0      1509.9      1104.0      680.75      337.49      128.29      42.581    
  21.227      14.091      13.202      16.735      23.761      34.578      51.444      78.058      118.74      176.39    
  241.96      295.31      311.66      275.51      197.75      118.53      85.084      118.53      197.75      275.51    
  311.66      295.31      241.96      176.39      118.74      78.058      51.444      34.578      23.761      16.735    
  13.202      14.091      21.227      42.581      128.29      337.49      680.75      1104.0      1509.9      1799.0    
  1602.5      1509.9      1255.0      902.95      544.07      261.80      97.381      34.720      18.795      12.933    
  12.458      15.860      22.451      32.585      48.243      72.641      109.63      162.64      225.77      282.22    
  311.09      298.43      250.83      197.75      174.74      197.75      250.83      298.43      311.09      282.22    