unknown system                          
   5.63900000000000     
     1.000000    0.000000    0.000000
     0.000000    1.000000    0.000000
     0.000000    0.000000    1.000000
   Na   Cl
     4     4
Direct
  0.000000  0.000000  0.000000
  0.000000  0.500000  0.500000
  0.500000  0.000000  0.500000
  0.500000  0.500000  0.000000
  0.500000  0.500000  0.500000
  0.500000  0.000000  0.000000
  0.000000  0.500000  0.000000
  0.000000  0.000000  0.500000
 
   48   48   48
 0.21230520829E+04 0.20112432055E+04 0.16990178293E+04 0.12556880169E+04 0.78616049281E+03
 0.39764192594E+03 0.15404930066E+03 0.49575100630E+02 0.23073587597E+02 0.14957850824E+02
 0.13739275321E+02 0.17355900995E+02 0.24689214315E+02 0.35990586599E+02 0.53726227025E+02
 0.81956048289E+02 0.12533621306E+03 0.18604698787E+03 0.25277435888E+03 0.30268769688E+03
 0.30790643461E+03 0.25168695617E+03 0.14857686293E+03 0.47490948255E+02 0.53548200464E+01
 0.47490948255E+02 0.14857686293E+03 0.25168695617E+03 0.30790643461E+03 0.30268769688E+03
 0.25277435888E+03 0.18604698787E+03 0.12533621306E+03 0.81956048289E+02 0.53726227025E+02
 0.35990586599E+02 0.24689214315E+02 0.17355900995E+02 0.13739275321E+02 0.14957850824E+02
 0.23073587597E+02 0.49575100630E+02 0.15404930066E+03 0.39764192594E+03 0.78616049281E+03
 0.12556880169E+04 0.16990178293E+04 0.20112432055E+04 0.20112432055E+04 0.19032138193E+04
 0.16025142449E+04 0.11780292867E+04 0.73196193620E+03 0.36653428010E+03 0.14061248448E+03
 0.45878229410E+02 0.22126535333E+02 0.14514145442E+02 0.13466415036E+02 0.17041990383E+02
 0.24219869153E+02 0.35275831557E+02 0.52569773319E+02 0.79977338932E+02 0.12198535686E+03
 0.18116898008E+03 0.24737797863E+03 0.29916524589E+03 0.31026929680E+03 0.26457982228E+03
 0.17474248843E+03 0.85083727497E+02 0.47490948255E+02 0.85083727497E+02 0.17474248843E+03
 0.26457982228E+03 0.31026929680E+03 0.29916524589E+03 0.24737797863E+03 0.18116898008E+03
 0.12198535686E+03 0.79977338932E+02 0.52569773319E+02 0.35275831557E+02 0.24219869153E+02
 0.17041990383E+02 0.13466415036E+02 0.14514145442E+02 0.22126535333E+02 0.45878229410E+02
 0.14061248448E+03 0.36653428010E+03 0.73196193620E+03 0.11780292867E+04 0.16025142449E+04
 0.19032138193E+04 0.16990178293E+04 0.16025142449E+04 0.13362931273E+04 0.96663573444E+03
 0.58696849690E+03 0.28524878754E+03 0.10675884207E+03 0.37043558407E+02 0.19565552607E+02
 0.13302532076E+02 0.12699418175E+02 0.16145888712E+02 0.22878668806E+02 0.33234320762E+02
 0.49282653838E+02 0.74393807951E+02 0.11257074166E+03 0.16712893786E+03 0.23116345756E+03
 0.28683658769E+03 0.31205796634E+03 0.29239103630E+03 0.23571482507E+03 0.17474248843E+03
 0.14857686293E+03 0.17474248843E+03 0.23571482507E+03 0.29239103630E+03 0.31205796634E+03
 0.28683658769E+03 0.23116345756E+03 0.16712893786E+03 0.11257074166E+03 0.74393807951E+02
 0.49282653838E+02 0.33234320762E+02 0.22878668806E+02 0.16145888712E+02 0.12699418175E+02
 0.13302532076E+02 0.19565552607E+02 0.37043558407E+02 0.10675884207E+03 0.28524878754E+03
 0.58696849690E+03 0.96663573444E+03 0.13362931273E+04 0.16025142449E+04 0.12556880169E+04
 0.11780292867E+04 0.96663573444E+03 0.68051453770E+03 0.39745365837E+03 0.18416215534E+03
 0.67879274168E+02 0.27713639769E+02 0.16099752621E+02 0.11624397230E+02 0.11573044774E+02
 0.14791714561E+02 0.20848074116E+02 0.30145642370E+02 0.44354860836E+02 0.66143636026E+02
 0.98792671396E+02 0.14582452530E+03 0.20472942355E+03 0.26243335792E+03 0.30200721273E+03
 0.31119984368E+03 0.29239103630E+03 0.26457982228E+03 0.25168695617E+03 0.26457982228E+03
 0.29239103630E+03 0.31119984368E+03 0.30200721273E+03 0.26243335792E+03 0.20472942355E+03
 0.14582452530E+03 0.98792671396E+02 0.66143636026E+02 0.44354860836E+02 0.30145642370E+02
 0.20848074116E+02 0.14791714561E+02 0.11573044774E+02 0.11624397230E+02 0.16099752621E+02
 0.27713639769E+02 0.67879274168E+02 0.18416215534E+03 0.39745365837E+03 0.68051453770E+03
 0.96663573444E+03 0.11780292867E+04 0.78616049281E+03 0.73196193620E+03 0.58696849690E+03
 0.39745365837E+03 0.22000999562E+03 0.97158399613E+02 0.38626554591E+02 0.20188524508E+02
 0.12554087364E+02 0.98312648820E+01 0.10258896770E+02 0.13150682182E+02 0.18380709758E+02
 0.26394037111E+02 0.38442396032E+02 0.56451152911E+02 0.82866544043E+02 0.12057436048E+03
 0.17059573011E+03 0.22527730083E+03 0.27243383503E+03 0.30200721273E+03 0.31205796634E+03
 0.31026929680E+03 0.30790643461E+03 0.31026929680E+03 0.31205796634E+03 0.30200721273E+03
 0.27243383503E+03 0.22527730083E+03 0.17059573011E+03 0.12057436048E+03 0.82866544043E+02
 0.56451152911E+02 0.38442396032E+02 0.26394037111E+02 0.18380709758E+02 0.13150682182E+02
 0.10258896770E+02 0.98312648820E+01 0.12554087364E+02 0.20188524508E+02 0.38626554591E+02
 0.97158399613E+02 0.22000999562E+03 0.39745365837E+03 0.58696849690E+03 0.73196193620E+03
 0.39764192594E+03 0.36653428010E+03 0.28524878754E+03 0.18416215534E+03 0.97158399613E+02
 0.44585325101E+02 0.23299256939E+02 0.14025103462E+02 0.95592959433E+01 0.82028986259E+01
 0.89210331910E+01 0.11405977301E+02 0.15746066624E+02 0.22384295950E+02 0.32206593544E+02
 0.46489594110E+02 0.66880547629E+02 0.95388844772E+02 0.13369117495E+03 0.17966790244E+03
 0.22527730083E+03 0.26243335792E+03 0.28683658769E+03 0.29916524589E+03 0.30268769688E+03
 0.29916524589E+03 0.28683658769E+03 0.26243335792E+03 0.22527730083E+03 0.17966790244E+03
 0.13369117495E+03 0.95388844772E+02 0.66880547629E+02 0.46489594110E+02 0.32206593544E+02
 0.22384295950E+02 0.15746066624E+02 0.11405977301E+02 0.89210331910E+01 0.82028986259E+01
 0.95592959433E+01 0.14025103462E+02 0.23299256939E+02 0.44585325101E+02 0.97158399613E+02
 0.18416215534E+03 0.28524878754E+03 0.36653428010E+03 0.15404930066E+03 0.14061248448E+03
 0.10675884207E+03 0.67879274168E+02 0.38626554591E+02 0.23299256939E+02 0.14730359874E+02
 0.97079305147E+01 0.74040765998E+01 0.68963678913E+01 0.76924438931E+01 0.97253895945E+01
 0.13186736407E+02 0.18474321729E+02 0.26195861740E+02 0.37145848050E+02 0.52326471183E+02
 0.72952228471E+02 0.10008541152E+03 0.13369117495E+03 0.17059573011E+03 0.20472942355E+03
 0.23116345756E+03 0.24737797863E+03 0.25277435888E+03 0.24737797863E+03 0.23116345756E+03
 0.20472942355E+03 0.17059573011E+03 0.13369117495E+03 0.10008541152E+03 0.72952228471E+02
 0.52326471183E+02 0.37145848050E+02 0.26195861740E+02 0.18474321729E+02 0.13186736407E+02
 0.97253895945E+01 0.76924438931E+01 0.68963678913E+01 0.74040765998E+01 0.97079305147E+01
 0.14730359874E+02 0.23299256939E+02 0.38626554591E+02 0.67879274168E+02 0.10675884207E+03
 0.14061248448E+03 0.49575100630E+02 0.45878229410E+02 0.37043558407E+02 0.27713639769E+02
 0.20188524508E+02 0.14025103462E+02 0.97079305147E+01 0.71992516988E+01 0.60843642732E+01
 0.59667997032E+01 0.66712694364E+01 0.82443415388E+01 0.10891267880E+02 0.14936128974E+02
 0.20794036776E+02 0.28948154022E+02 0.39958485324E+02 0.54454949003E+02 0.72952228471E+02
 0.95388844772E+02 0.12057436048E+03 0.14582452530E+03 0.16712893786E+03 0.18116898008E+03
 0.18604698787E+03 0.18116898008E+03 0.16712893786E+03 0.14582452530E+03 0.12057436048E+03
 0.95388844772E+02 0.72952228471E+02 0.54454949003E+02 0.39958485324E+02 0.28948154022E+02
 0.20794036776E+02 0.14936128974E+02 0.10891267880E+02 0.82443415388E+01 0.66712694364E+01
 0.59667997032E+01 0.60843642732E+01 0.71992516988E+01 0.97079305147E+01 0.14025103462E+02
 0.20188524508E+02 0.27713639769E+02 0.37043558407E+02 0.45878229410E+02 0.23073587597E+02
 0.22126535333E+02 0.19565552607E+02 0.16099752621E+02 0.12554087364E+02 0.95592959433E+01
 0.74040765998E+01 0.60843642732E+01 0.54630018190E+01 0.54194848993E+01 0.59255017943E+01
 0.70571629540E+01 0.89824684427E+01 0.11942043888E+02 0.16221469529E+02 0.22121925620E+02
 0.29942811300E+02 0.39958485324E+02 0.52326471183E+02 0.66880547629E+02 0.82866544043E+02
 0.98792671396E+02 0.11257074166E+03 0.12198535686E+03 0.12533621306E+03 0.12198535686E+03
 0.11257074166E+03 0.98792671396E+02 0.82866544043E+02 0.66880547629E+02 0.52326471183E+02
 0.39958485324E+02 0.29942811300E+02 0.22121925620E+02 0.16221469529E+02 0.11942043888E+02
 0.89824684427E+01 0.70571629540E+01 0.59255017943E+01 0.54194848993E+01 0.54630018190E+01
 0.60843642732E+01 0.74040765998E+01 0.95592959433E+01 0.12554087364E+02 0.16099752621E+02
 0.19565552607E+02 0.22126535333E+02 0.14957850824E+02 0.14514145442E+02 0.13302532076E+02
 0.11624397230E+02 0.98312648820E+01 0.82028986259E+01 0.68963678913E+01 0.59667997032E+01
 0.54194848993E+01 0.52555775685E+01 0.54997405969E+01 0.62161777403E+01 0.75183608597E+01
 0.95685102676E+01 0.12560842162E+02 0.16691047787E+02 0.22121925620E+02 0.28948154022E+02
 0.37145848050E+02 0.46489594110E+02 0.56451152911E+02 0.66143636026E+02 0.74393807951E+02
 0.79977338932E+02 0.81956048289E+02 0.79977338932E+02 0.74393807951E+02 0.66143636026E+02
 0.56451152911E+02 0.46489594110E+02 0.37145848050E+02 0.28948154022E+02 0.22121925620E+02
 0.16691047787E+02 0.12560842162E+02 0.95685102676E+01 0.75183608597E+01 0.62161777403E+01
 0.54997405969E+01 0.52555775685E+01 0.54194848993E+01 0.59667997032E+01 0.68963678913E+01
 0.82028986259E+01 0.98312648820E+01 0.11624397230E+02 0.13302532076E+02 0.14514145442E+02
 0.13739275321E+02 0.13466415036E+02 0.12699418175E+02 0.11573044774E+02 0.10258896770E+02
 0.89210331910E+01 0.76924438931E+01 0.66712694364E+01 0.59255017943E+01 0.54997405969E+01
 0.54259563880E+01 0.57407355507E+01 0.65045743289E+01 0.78128340341E+01 0.97892555944E+01
 0.12560842162E+02 0.16221469529E+02 0.20794036776E+02 0.26195861740E+02 0.32206593544E+02
 0.38442396032E+02 0.44354860836E+02 0.49282653838E+02 0.52569773319E+02 0.53726227025E+02
 0.52569773319E+02 0.49282653838E+02 0.44354860836E+02 0.38442396032E+02 0.32206593544E+02
 0.26195861740E+02 0.20794036776E+02 0.16221469529E+02 0.12560842162E+02 0.97892555944E+01
 0.78128340341E+01 0.65045743289E+01 0.57407355507E+01 0.54259563880E+01 0.54997405969E+01
 0.59255017943E+01 0.66712694364E+01 0.76924438931E+01 0.89210331910E+01 0.10258896770E+02
 0.11573044774E+02 0.12699418175E+02 0.13466415036E+02 0.17355900995E+02 0.17041990383E+02
 0.16145888712E+02 0.14791714561E+02 0.13150682182E+02 0.11405977301E+02 0.97253895945E+01
 0.82443415388E+01 0.70571629540E+01 0.62161777403E+01 0.57407355507E+01 0.56361268969E+01
 0.59163204504E+01 0.66202432263E+01 0.78128340341E+01 0.95685102676E+01 0.11942043888E+02
 0.14936128974E+02 0.18474321729E+02 0.22384295950E+02 0.26394037111E+02 0.30145642370E+02
 0.33234320762E+02 0.35275831557E+02 0.35990586599E+02 0.35275831557E+02 0.33234320762E+02
 0.30145642370E+02 0.26394037111E+02 0.22384295950E+02 0.18474321729E+02 0.14936128974E+02
 0.11942043888E+02 0.95685102676E+01 0.78128340341E+01 0.66202432263E+01 0.59163204504E+01
 0.56361268969E+01 0.57407355507E+01 0.62161777403E+01 0.70571629540E+01 0.82443415388E+01
 0.97253895945E+01 0.11405977301E+02 0.13150682182E+02 0.14791714561E+02 0.16145888712E+02
 0.17041990383E+02 0.24689214315E+02 0.24219869153E+02 0.22878668806E+02 0.20848074116E+02
 0.18380709758E+02 0.15746066624E+02 0.13186736407E+02 0.10891267880E+02 0.89824684427E+01
 0.75183608597E+01 0.65045743289E+01 0.59163204504E+01 0.57243883649E+01 0.59163204504E+01
 0.65045743289E+01 0.75183608597E+01 0.89824684427E+01 0.10891267880E+02 0.13186736407E+02
 0.15746066624E+02 0.18380709758E+02 0.20848074116E+02 0.22878668806E+02 0.24219869153E+02
 0.24689214315E+02 0.24219869153E+02 0.22878668806E+02 0.20848074116E+02 0.18380709758E+02
 0.15746066624E+02 0.13186736407E+02 0.10891267880E+02 0.89824684427E+01 0.75183608597E+01
 0.65045743289E+01 0.59163204504E+01 0.57243883649E+01 0.59163204504E+01 0.65045743289E+01
 0.75183608597E+01 0.89824684427E+01 0.10891267880E+02 0.13186736407E+02 0.15746066624E+02
 0.18380709758E+02 0.20848074116E+02 0.22878668806E+02 0.24219869153E+02 0.35990586599E+02
 0.35275831557E+02 0.33234320762E+02 0.30145642370E+02 0.26394037111E+02 0.22384295950E+02
 0.18474321729E+02 0.14936128974E+02 0.11942043888E+02 0.95685102676E+01 0.78128340341E+01
 0.66202432263E+01 0.59163204504E+01 0.56361268969E+01 0.57407355507E+01 0.62161777403E+01
 0.70571629540E+01 0.82443415388E+01 0.97253895945E+01 0.11405977301E+02 0.13150682182E+02
 0.14791714561E+02 0.16145888712E+02 0.17041990383E+02 0.17355900995E+02 0.17041990383E+02
 0.16145888712E+02 0.14791714561E+02 0.13150682182E+02 0.11405977301E+02 0.97253895945E+01
 0.82443415388E+01 0.70571629540E+01 0.62161777403E+01 0.57407355507E+01 0.56361268969E+01
 0.59163204504E+01 0.66202432263E+01 0.78128340341E+01 0.95685102676E+01 0.11942043888E+02
 0.14936128974E+02 0.18474321729E+02 0.22384295950E+02 0.26394037111E+02 0.30145642370E+02
 0.33234320762E+02 0.35275831557E+02 0.53726227025E+02 0.52569773319E+02 0.49282653838E+02
 0.44354860836E+02 0.38442396032E+02 0.32206593544E+02 0.26195861740E+02 0.20794036776E+02
 0.16221469529E+02 0.12560842162E+02 0.97892555944E+01 0.78128340341E+01 0.65045743289E+01
 0.57407355507E+01 0.54259563880E+01 0.54997405969E+01 0.59255017943E+01 0.66712694364E+01
 0.76924438931E+01 0.89210331910E+01 0.10258896770E+02 0.11573044774E+02 0.12699418175E+02
 0.13466415036E+02 0.13739275321E+02 0.13466415036E+02 0.12699418175E+02 0.11573044774E+02
 0.10258896770E+02 0.89210331910E+01 0.76924438931E+01 0.66712694364E+01 0.59255017943E+01
 0.54997405969E+01 0.54259563880E+01 0.57407355507E+01 0.65045743289E+01 0.78128340341E+01
 0.97892555944E+01 0.12560842162E+02 0.16221469529E+02 0.20794036776E+02 0.26195861740E+02
 0.32206593544E+02 0.38442396032E+02 0.44354860836E+02 0.49282653838E+02 0.52569773319E+02
 0.81956048289E+02 0.79977338932E+02 0.74393807951E+02 0.66143636026E+02 0.56451152911E+02
 0.46489594110E+02 0.37145848050E+02 0.28948154022E+02 0.22121925620E+02 0.16691047787E+02
 0.12560842162E+02 0.95685102676E+01 0.75183608597E+01 0.62161777403E+01 0.54997405969E+01
 0.52555775685E+01 0.54194848993E+01 0.59667997032E+01 0.68963678913E+01 0.82028986259E+01
 0.98312648820E+01 0.11624397230E+02 0.13302532076E+02 0.14514145442E+02 0.14957850824E+02
 0.14514145442E+02 0.13302532076E+02 0.11624397230E+02 0.98312648820E+01 0.82028986259E+01
 0.68963678913E+01 0.59667997032E+01 0.54194848993E+01 0.52555775685E+01 0.54997405969E+01
 0.62161777403E+01 0.75183608597E+01 0.95685102676E+01 0.12560842162E+02 0.16691047787E+02
 0.22121925620E+02 0.28948154022E+02 0.37145848050E+02 0.46489594110E+02 0.56451152911E+02
 0.66143636026E+02 0.74393807951E+02 0.79977338932E+02 0.12533621306E+03 0.12198535686E+03
 0.11257074166E+03 0.98792671396E+02 0.82866544043E+02 0.66880547629E+02 0.52326471183E+02
 0.39958485324E+02 0.29942811300E+02 0.22121925620E+02 0.16221469529E+02 0.11942043888E+02
 0.89824684427E+01 0.70571629540E+01 0.59255017943E+01 0.54194848993E+01 0.54630018190E+01
 0.60843642732E+01 0.74040765998E+01 0.95592959433E+01 0.12554087364E+02 0.16099752621E+02
 0.19565552607E+02 0.22126535333E+02 0.23073587597E+02 0.22126535333E+02 0.19565552607E+02
 0.16099752621E+02 0.12554087364E+02 0.95592959433E+01 0.74040765998E+01 0.60843642732E+01
 0.54630018190E+01 0.54194848993E+01 0.59255017943E+01 0.70571629540E+01 0.89824684427E+01
 0.11942043888E+02 0.16221469529E+02 0.22121925620E+02 0.29942811300E+02 0.39958485324E+02
 0.52326471183E+02 0.66880547629E+02 0.82866544043E+02 0.98792671396E+02 0.11257074166E+03
 0.12198535686E+03 0.18604698787E+03 0.18116898008E+03 0.16712893786E+03 0.14582452530E+03
 0.12057436048E+03 0.95388844772E+02 0.72952228471E+02 0.54454949003E+02 0.39958485324E+02
 0.28948154022E+02 0.20794036776E+02 0.14936128974E+02 0.10891267880E+02 0.82443415388E+01
 0.66712694364E+01 0.59667997032E+01 0.60843642732E+01 0.71992516988E+01 0.97079305147E+01
 0.14025103462E+02 0.20188524508E+02 0.27713639769E+02 0.37043558407E+02 0.45878229410E+02
 0.49575100630E+02 0.45878229410E+02 0.37043558407E+02 0.27713639769E+02 0.20188524508E+02
 0.14025103462E+02 0.97079305147E+01 0.71992516988E+01 0.60843642732E+01 0.59667997032E+01
 0.66712694364E+01 0.82443415388E+01 0.10891267880E+02 0.14936128974E+02 0.20794036776E+02
 0.28948154022E+02 0.39958485324E+02 0.54454949003E+02 0.72952228471E+02 0.95388844772E+02
 0.12057436048E+03 0.14582452530E+03 0.16712893786E+03 0.18116898008E+03 0.25277435888E+03
 0.24737797863E+03 0.23116345756E+03 0.20472942355E+03 0.17059573011E+03 0.13369117495E+03
 0.10008541152E+03 0.72952228471E+02 0.52326471183E+02 0.37145848050E+02 0.26195861740E+02
 0.18474321729E+02 0.13186736407E+02 0.97253895945E+01 0.76924438931E+01 0.68963678913E+01
 0.74040765998E+01 0.97079305147E+01 0.14730359874E+02 0.23299256939E+02 0.38626554591E+02
 0.67879274168E+02 0.10675884207E+03 0.14061248448E+03 0.15404930066E+03 0.14061248448E+03
 0.10675884207E+03 0.67879274168E+02 0.38626554591E+02 0.23299256939E+02 0.14730359874E+02
 0.97079305147E+01 0.74040765998E+01 0.68963678913E+01 0.76924438931E+01 0.97253895945E+01
 0.13186736407E+02 0.18474321729E+02 0.26195861740E+02 0.37145848050E+02 0.52326471183E+02
 0.72952228471E+02 0.10008541152E+03 0.13369117495E+03 0.17059573011E+03 0.20472942355E+03
 0.23116345756E+03 0.24737797863E+03 0.30268769688E+03 0.29916524589E+03 0.28683658769E+03
 0.26243335792E+03 0.22527730083E+03 0.17966790244E+03 0.13369117495E+03 0.95388844772E+02
 0.66880547629E+02 0.46489594110E+02 0.32206593544E+02 0.22384295950E+02 0.15746066624E+02
 0.11405977301E+02 0.89210331910E+01 0.82028986259E+01 0.95592959433E+01 0.14025103462E+02
 0.23299256939E+02 0.44585325101E+02 0.97158399613E+02 0.18416215534E+03 0.28524878754E+03
 0.36653428010E+03 0.39764192594E+03 0.36653428010E+03 0.28524878754E+03 0.18416215534E+03
 0.97158399613E+02 0.44585325101E+02 0.23299256939E+02 0.14025103462E+02 0.95592959433E+01
 0.82028986259E+01 0.89210331910E+01 0.11405977301E+02 0.15746066624E+02 0.22384295950E+02
 0.32206593544E+02 0.46489594110E+02 0.66880547629E+02 0.95388844772E+02 0.13369117495E+03
 0.17966790244E+03 0.22527730083E+03 0.26243335792E+03 0.28683658769E+03 0.29916524589E+03
 0.30790643461E+03 0.31026929680E+03 0.31205796634E+03 0.30200721273E+03 0.27243383503E+03
 0.22527730083E+03 0.17059573011E+03 0.12057436048E+03 0.82866544043E+02 0.56451152911E+02
 0.38442396032E+02 0.26394037111E+02 0.18380709758E+02 0.13150682182E+02 0.10258896770E+02
 0.98312648820E+01 0.12554087364E+02 0.20188524508E+02 0.38626554591E+02 0.97158399613E+02
 0.22000999562E+03 0.39745365837E+03 0.58696849690E+03 0.73196193620E+03 0.78616049281E+03
 0.73196193620E+03 0.58696849690E+03 0.39745365837E+03 0.22000999562E+03 0.97158399613E+02
 0.38626554591E+02 0.20188524508E+02 0.12554087364E+02 0.98312648820E+01 0.10258896770E+02
 0.13150682182E+02 0.18380709758E+02 0.26394037111E+02 0.38442396032E+02 0.56451152911E+02
 0.82866544043E+02 0.12057436048E+03 0.17059573011E+03 0.22527730083E+03 0.27243383503E+03
 0.30200721273E+03 0.31205796634E+03 0.31026929680E+03 0.25168695617E+03 0.26457982228E+03
 0.29239103630E+03 0.31119984368E+03 0.30200721273E+03 0.26243335792E+03 0.20472942355E+03
 0.14582452530E+03 0.98792671396E+02 0.66143636026E+02 0.44354860836E+02 0.30145642370E+02
 0.20848074116E+02 0.14791714561E+02 0.11573044774E+02 0.11624397230E+02 0.16099752621E+02
 0.27713639769E+02 0.67879274168E+02 0.18416215534E+03 0.39745365837E+03 0.68051453770E+03
 0.96663573444E+03 0.11780292867E+04 0.12556880169E+04 0.11780292867E+04 0.96663573444E+03
 0.68051453770E+03 0.39745365837E+03 0.18416215534E+03 0.67879274168E+02 0.27713639769E+02
 0.16099752621E+02 0.11624397230E+02 0.11573044774E+02 0.14791714561E+02 0.20848074116E+02
 0.30145642370E+02 0.44354860836E+02 0.66143636026E+02 0.98792671396E+02 0.14582452530E+03
 0.20472942355E+03 0.26243335792E+03 0.30200721273E+03 0.31119984368E+03 0.29239103630E+03
 0.26457982228E+03 0.14857686293E+03 0.17474248843E+03 0.23571482507E+03 0.29239103630E+03
 0.31205796634E+03 0.28683658769E+03 0.23116345756E+03 0.16712893786E+03 0.11257074166E+03
 0.74393807951E+02 0.49282653838E+02 0.33234320762E+02 0.22878668806E+02 0.16145888712E+02
 0.12699418175E+02 0.13302532076E+02 0.19565552607E+02 0.37043558407E+02 0.10675884207E+03
 0.28524878754E+03 0.58696849690E+03 0.96663573444E+03 0.13362931273E+04 0.16025142449E+04
 0.16990178293E+04 0.16025142449E+04 0.13362931273E+04 0.96663573444E+03 0.58696849690E+03
 0.28524878754E+03 0.10675884207E+03 0.37043558407E+02 0.19565552607E+02 0.13302532076E+02
 0.12699418175E+02 0.16145888712E+02 0.22878668806E+02 0.33234320762E+02 0.49282653838E+02
 0.74393807951E+02 0.11257074166E+03 0.16712893786E+03 0.23116345756E+03 0.28683658769E+03
 0.31205796634E+03 0.29239103630E+03 0.23571482507E+03 0.17474248843E+03 0.47490948255E+02
 0.85083727497E+02 0.17474248843E+03 0.26457982228E+03 0.31026929680E+03 0.29916524589E+03
 0.24737797863E+03 0.18116898008E+03 0.12198535686E+03 0.79977338932E+02 0.52569773319E+02
 0.35275831557E+02 0.24219869153E+02 0.17041990383E+02 0.13466415036E+02 0.14514145442E+02
 0.22126535333E+02 0.45878229410E+02 0.14061248448E+03 0.36653428010E+03 0.73196193620E+03
 0.11780292867E+04 0.16025142449E+04 0.19032138193E+04 0.20112432055E+04 0.19032138193E+04
 0.16025142449E+04 0.11780292867E+04 0.73196193620E+03 0.36653428010E+03 0.14061248448E+03
 0.45878229410E+02 0.22126535333E+02 0.14514145442E+02 0.13466415036E+02 0.17041990383E+02
 0.24219869153E+02 0.35275831557E+02 0.52569773319E+02 0.79977338932E+02 0.12198535686E+03
 0.18116898008E+03 0.24737797863E+03 0.29916524589E+03 0.31026929680E+03 0.26457982228E+03
 0.17474248843E+03 0.85083727497E+02 0.53548200464E+01 0.47490948255E+02 0.14857686293E+03
 0.25168695617E+03 0.30790643461E+03 0.30268769688E+03 0.25277435888E+03 0.18604698787E+03
 0.12533621306E+03 0.81956048289E+02 0.53726227025E+02 0.35990586599E+02 0.24689214315E+02
 0.17355900995E+02 0.13739275321E+02 0.14957850824E+02 0.23073587597E+02 0.49575100630E+02
 0.15404930066E+03 0.39764192594E+03 0.78616049281E+03 0.12556880169E+04 0.16990178293E+04
 0.20112432055E+04 0.21230520829E+04 0.20112432055E+04 0.16990178293E+04 0.12556880169E+04
 0.78616049281E+03 0.39764192594E+03 0.15404930066E+03 0.49575100630E+02 0.23073587597E+02
 0.14957850824E+02 0.13739275321E+02 0.17355900995E+02 0.24689214315E+02 0.35990586599E+02
 0.53726227025E+02 0.81956048289E+02 0.12533621306E+03 0.18604698787E+03 0.25277435888E+03
 0.30268769688E+03 0.30790643461E+03 0.25168695617E+03 0.14857686293E+03 0.47490948255E+02
 0.47490948255E+02 0.85083727497E+02 0.17474248843E+03 0.26457982228E+03 0.31026929680E+03
 0.29916524589E+03 0.24737797863E+03 0.18116898008E+03 0.12198535686E+03 0.79977338932E+02
 0.52569773319E+02 0.35275831557E+02 0.24219869153E+02 0.17041990383E+02 0.13466415036E+02
 0.14514145442E+02 0.22126535333E+02 0.45878229410E+02 0.14061248448E+03 0.36653428010E+03
 0.73196193620E+03 0.11780292867E+04 0.16025142449E+04 0.19032138193E+04 0.20112432055E+04
 0.19032138193E+04 0.16025142449E+04 0.11780292867E+04 0.73196193620E+03 0.36653428010E+03
 0.14061248448E+03 0.45878229410E+02 0.22126535333E+02 0.14514145442E+02 0.13466415036E+02
 0.17041990383E+02 0.24219869153E+02 0.35275831557E+02 0.52569773319E+02 0.79977338932E+02
 0.12198535686E+03 0.18116898008E+03 0.24737797863E+03 0.29916524589E+03 0.31026929680E+03
 0.26457982228E+03 0.17474248843E+03 0.85083727497E+02 0.14857686293E+03 0.17474248843E+03
 0.23571482507E+03 0.29239103630E+03 0.31205796634E+03 0.28683658769E+03 0.23116345756E+03
 0.16712893786E+03 0.11257074166E+03 0.74393807951E+02 0.49282653838E+02 0.33234320762E+02
 0.22878668806E+02 0.16145888712E+02 0.12699418175E+02 0.13302532076E+02 0.19565552607E+02
 0.37043558407E+02 0.10675884207E+03 0.28524878754E+03 0.58696849690E+03 0.96663573444E+03
 0.13362931273E+04 0.16025142449E+04 0.16990178293E+04 0.16025142449E+04 0.13362931273E+04
 0.96663573444E+03 0.58696849690E+03 0.28524878754E+03 0.10675884207E+03 0.37043558407E+02
 0.19565552607E+02 0.13302532076E+02 0.12699418175E+02 0.16145888712E+02 0.22878668806E+02
 0.33234320762E+02 0.49282653838E+02 0.74393807951E+02 0.11257074166E+03 0.16712893786E+03
 0.23116345756E+03 0.28683658769E+03 0.31205796634E+03 0.29239103630E+03 0.23571482507E+03
 0.17474248843E+03 0.25168695617E+03 0.26457982228E+03 0.29239103630E+03 0.31119984368E+03
 0.30200721273E+03 0.26243335792E+03 0.20472942355E+03 0.14582452530E+03 0.98792671396E+02
 0.66143636026E+02 0.44354860836E+02 0.30145642370E+02 0.20848074116E+02 0.14791714561E+02
 0.11573044774E+02 0.11624397230E+02 0.16099752621E+02 0.27713639769E+02 0.67879274168E+02
 0.18416215534E+03 0.39745365837E+03 0.68051453770E+03 0.96663573444E+03 0.11780292867E+04
 0.12556880169E+04 0.11780292867E+04 0.96663573444E+03 0.68051453770E+03 0.39745365837E+03
 0.18416215534E+03 0.67879274168E+02 0.27713639769E+02 0.16099752621E+02 0.11624397230E+02
 0.11573044774E+02 0.14791714561E+02 0.20848074116E+02 0.30145642370E+02 0.44354860836E+02
 0.66143636026E+02 0.98792671396E+02 0.14582452530E+03 0.20472942355E+03 0.26243335792E+03
 0.30200721273E+03 0.31119984368E+03 0.29239103630E+03 0.26457982228E+03 0.30790643461E+03
 0.31026929680E+03 0.31205796634E+03 0.30200721273E+03 0.27243383503E+03 0.22527730083E+03
 0.17059573011E+03 0.12057436048E+03 0.82866544043E+02 0.56451152911E+02 0.38442396032E+02
 0.26394037111E+02 0.18380709758E+02 0.13150682182E+02 0.10258896770E+02 0.98312648820E+01
 0.12554087364E+02 0.20188524508E+02 0.38626554591E+02 0.97158399613E+02 0.22000999562E+03
 0.39745365837E+03 0.58696849690E+03 0.73196193620E+03 0.78616049281E+03 0.73196193620E+03
 0.58696849690E+03 0.39745365837E+03 0.22000999562E+03 0.97158399613E+02 0.38626554591E+02
 0.20188524508E+02 0.12554087364E+02 0.98312648820E+01 0.10258896770E+02 0.13150682182E+02
 0.18380709758E+02 0.26394037111E+02 0.38442396032E+02 0.56451152911E+02 0.82866544043E+02
 0.12057436048E+03 0.17059573011E+03 0.22527730083E+03 0.27243383503E+03 0.30200721273E+03
 0.31205796634E+03 0.31026929680E+03 0.30268769688E+03 0.29916524589E+03 0.28683658769E+03
 0.26243335792E+03 0.22527730083E+03 0.17966790244E+03 0.13369117495E+03 0.95388844772E+02
 0.66880547629E+02 0.46489594110E+02 0.32206593544E+02 0.22384295950E+02 0.15746066624E+02
 0.11405977301E+02 0.89210331910E+01 0.82028986259E+01 0.95592959433E+01 0.14025103462E+02
 0.23299256939E+02 0.44585325101E+02 0.97158399613E+02 0.18416215534E+03 0.28524878754E+03
 0.36653428010E+03 0.39764192594E+03 0.36653428010E+03 0.28524878754E+03 0.18416215534E+03
 0.97158399613E+02 0.44585325101E+02 0.23299256939E+02 0.14025103462E+02 0.95592959433E+01
 0.82028986259E+01 0.89210331910E+01 0.11405977301E+02 0.15746066624E+02 0.22384295950E+02
 0.32206593544E+02 0.46489594110E+02 0.66880547629E+02 0.95388844772E+02 0.13369117495E+03
 0.17966790244E+03 0.22527730083E+03 0.26243335792E+03 0.28683658769E+03 0.29916524589E+03
 0.25277435888E+03 0.24737797863E+03 0.23116345756E+03 0.20472942355E+03 0.17059573011E+03
 0.13369117495E+03 0.10008541152E+03 0.72952228471E+02 0.52326471183E+02 0.37145848050E+02
 0.26195861740E+02 0.18474321729E+02 0.13186736407E+02 0.97253895945E+01 0.76924438931E+01
 0.68963678913E+01 0.74040765998E+01 0.97079305147E+01 0.14730359874E+02 0.23299256939E+02
 0.38626554591E+02 0.67879274168E+02 0.10675884207E+03 0.14061248448E+03 0.15404930066E+03
 0.14061248448E+03 0.10675884207E+03 0.67879274168E+02 0.38626554591E+02 0.23299256939E+02
 0.14730359874E+02 0.97079305147E+01 0.74040765998E+01 0.68963678913E+01 0.76924438931E+01
 0.97253895945E+01 0.13186736407E+02 0.18474321729E+02 0.26195861740E+02 0.37145848050E+02
 0.52326471183E+02 0.72952228471E+02 0.10008541152E+03 0.13369117495E+03 0.17059573011E+03
 0.20472942355E+03 0.23116345756E+03 0.24737797863E+03 0.18604698787E+03 0.18116898008E+03
 0.16712893786E+03 0.14582452530E+03 0.12057436048E+03 0.95388844772E+02 0.72952228471E+02
 0.54454949003E+02 0.39958485324E+02 0.28948154022E+02 0.20794036776E+02 0.14936128974E+02
 0.10891267880E+02 0.82443415388E+01 0.66712694364E+01 0.59667997032E+01 0.60843642732E+01
 0.71992516988E+01 0.97079305147E+01 0.14025103462E+02 0.20188524508E+02 0.27713639769E+02
 0.37043558407E+02 0.45878229410E+02 0.49575100630E+02 0.45878229410E+02 0.37043558407E+02
 0.27713639769E+02 0.20188524508E+02 0.14025103462E+02 0.97079305147E+01 0.71992516988E+01
 0.60843642732E+01 0.59667997032E+01 0.66712694364E+01 0.82443415388E+01 0.10891267880E+02
 0.14936128974E+02 0.20794036776E+02 0.28948154022E+02 0.39958485324E+02 0.54454949003E+02
 0.72952228471E+02 0.95388844772E+02 0.12057436048E+03 0.14582452530E+03 0.16712893786E+03
 0.18116898008E+03 0.12533621306E+03 0.12198535686E+03 0.11257074166E+03 0.98792671396E+02
 0.82866544043E+02 0.66880547629E+02 0.52326471183E+02 0.39958485324E+02 0.29942811300E+02
 0.22121925620E+02 0.16221469529E+02 0.11942043888E+02 0.89824684427E+01 0.70571629540E+01
 0.59255017943E+01 0.54194848993E+01 0.54630018190E+01 0.60843642732E+01 0.74040765998E+01
 0.95592959433E+01 0.12554087364E+02 0.16099752621E+02 0.19565552607E+02 0.22126535333E+02
 0.23073587597E+02 0.22126535333E+02 0.19565552607E+02 0.16099752621E+02 0.12554087364E+02
 0.95592959433E+01 0.74040765998E+01 0.60843642732E+01 0.54630018190E+01 0.54194848993E+01
 0.59255017943E+01 0.70571629540E+01 0.89824684427E+01 0.11942043888E+02 0.16221469529E+02
 0.22121925620E+02 0.29942811300E+02 0.39958485324E+02 0.52326471183E+02 0.66880547629E+02
 0.82866544043E+02 0.98792671396E+02 0.11257074166E+03 0.12198535686E+03 0.81956048289E+02
 0.79977338932E+02 0.74393807951E+02 0.66143636026E+02 0.56451152911E+02 0.46489594110E+02
 0.37145848050E+02 0.28948154022E+02 0.22121925620E+02 0.16691047787E+02 0.12560842162E+02
 0.95685102676E+01 0.75183608597E+01 0.62161777403E+01 0.54997405969E+01 0.52555775685E+01
 0.54194848993E+01 0.59667997032E+01 0.68963678913E+01 0.82028986259E+01 0.98312648820E+01
 0.11624397230E+02 0.13302532076E+02 0.14514145442E+02 0.14957850824E+02 0.14514145442E+02
 0.13302532076E+02 0.11624397230E+02 0.98312648820E+01 0.82028986259E+01 0.68963678913E+01
 0.59667997032E+01 0.54194848993E+01 0.52555775685E+01 0.54997405969E+01 0.62161777403E+01