 vasp.5.4.1 05Feb16 (build Sep 30 2016 11:22:30) complex                        
  
 executed on     NSC-TRIO-BUILD02 date 2018.04.27  15:02:30
 running on    1 total cores
 distrk:  each k-point on    1 cores,    1 groups
 distr:  one band on NCORES_PER_BAND=   1 cores,    1 groups


--------------------------------------------------------------------------------------------------------


 INCAR:
 POTCAR:    PAW_PBE Na_pv 05Jan2001               
 POTCAR:    PAW_PBE Cl 17Jan2003                  
 POTCAR:    PAW_PBE Na_pv 05Jan2001               
   VRHFIN =Na: p6s1                                                             
   LEXCH  = PE                                                                  
   EATOM  =   766.0439 eV,   56.3026 Ry                                         
                                                                                
   TITEL  = PAW_PBE Na_pv 05Jan2001                                             
   LULTRA =        F    use ultrasoft PP ?                                      
   IUNSCR =        1    unscreen: 0-lin 1-nonlin 2-no                           
   RPACOR =    1.800    partial core radius                                     
   POMASS =   22.990; ZVAL   =    7.000    mass and valenz                      
   RCORE  =    2.200    outmost cutoff radius                                   
   RWIGS  =    2.200; RWIGS  =    1.164    wigner-seitz radius (au A)           
   ENMAX  =  259.561; ENMIN  =  194.671 eV                                      
   ICORE  =        2    local potential                                         
   LCOR   =        T    correct aug charges                                     
   LPAW   =        T    paw PP                                                  
   EAUG   =  368.056                                                            
   DEXC   =    -.009                                                            
   RMAX   =    2.862    core radius for proj-oper                               
   RAUG   =    1.300    factor for augmentation sphere                          
   RDEP   =    2.259    radius for radial grids                                 
   QCUT   =   -4.368; QGAM   =    8.735    optimization parameters              
                                                                                
   Description                                                                  
     l     E      TYP  RCUT    TYP  RCUT                                        
     1   .000     23  2.000                                                     
     1   .500     23  2.000                                                     
     0   .000     23  2.200                                                     
     0  1.000     23  2.200                                                     
     2  -.100     23  2.000                                                     
  local pseudopotential read in
  partial core-charges read in
  atomic valenz-charges read in
  non local Contribution for L=           1  read in
    real space projection operators read in
  non local Contribution for L=           1  read in
    real space projection operators read in
  non local Contribution for L=           0  read in
    real space projection operators read in
  non local Contribution for L=           0  read in
    real space projection operators read in
    PAW grid and wavefunctions read in
 
   number of l-projection  operators is LMAX  =           4
   number of lm-projection operators is LMMAX =           8
 
 POTCAR:    PAW_PBE Cl 17Jan2003                  
   VRHFIN =Cl: s2p5                                                             
   LEXCH  = PE                                                                  
   EATOM  =   409.7259 eV,   30.1140 Ry                                         
                                                                                
   TITEL  = PAW_PBE Cl 17Jan2003                                                
   LULTRA =        F    use ultrasoft PP ?                                      
   IUNSCR =        1    unscreen: 0-lin 1-nonlin 2-no                           
   RPACOR =    1.500    partial core radius                                     
   POMASS =   35.453; ZVAL   =    7.000    mass and valenz                      
   RCORE  =    1.900    outmost cutoff radius                                   
   RWIGS  =    2.100; RWIGS  =    1.111    wigner-seitz radius (au A)           
   ENMAX  =  280.000; ENMIN  =  196.854 eV                                      
   ICORE  =        2    local potential                                         
   LCOR   =        T    correct aug charges                                     
   LPAW   =        T    paw PP                                                  
   EAUG   =  356.192                                                            
   DEXC   =     .000                                                            
   RMAX   =    2.846    core radius for proj-oper                               
   RAUG   =    1.300    factor for augmentation sphere                          
   RDEP   =    2.020    radius for radial grids                                 
   QCUT   =   -4.392; QGAM   =    8.784    optimization parameters              
                                                                                
   Description                                                                  
     l     E      TYP  RCUT    TYP  RCUT                                        
     0   .000     23  1.900                                                     
     0   .000     23  1.900                                                     
     1   .000     23  1.900                                                     
     1   .000     23  1.900                                                     
     2   .000     23  1.900                                                     
  local pseudopotential read in
  partial core-charges read in
  atomic valenz-charges read in
  non local Contribution for L=           0  read in
    real space projection operators read in
  non local Contribution for L=           0  read in
    real space projection operators read in
  non local Contribution for L=           1  read in
    real space projection operators read in
  non local Contribution for L=           1  read in
    real space projection operators read in
    PAW grid and wavefunctions read in
 
   number of l-projection  operators is LMAX  =           4
   number of lm-projection operators is LMMAX =           8
 
  PAW_PBE Na_pv 05Jan2001               :
 energy of atom  1       EATOM= -766.0439
 kinetic energy error for atom=    0.0201 (will be added to EATOM!!)
  PAW_PBE Cl 17Jan2003                  :
 energy of atom  2       EATOM= -409.7259
 kinetic energy error for atom=    0.0150 (will be added to EATOM!!)
 
 
 POSCAR: Natriumklorid                           
  positions in direct lattice
  velocities in cartesian coordinates
 exchange correlation table for  LEXCH =        8
   RHO(1)=    0.500       N(1)  =     2000
   RHO(2)=  100.500       N(2)  =     4000
 


--------------------------------------------------------------------------------------------------------


 ion  position               nearest neighbor table
   1  0.000  0.000  0.000-
   2  0.000  0.500  0.500-
   3  0.500  0.000  0.500-
   4  0.500  0.500  0.000-
   5  0.500  0.500  0.500-
   6  0.500  0.000  0.000-
   7  0.000  0.500  0.000-
   8  0.000  0.000  0.500-
 
  LATTYP: Found a simple cubic cell.
 ALAT       =     5.6390000000
  
  Lattice vectors:
  
 A1 = (   5.6390000000,   0.0000000000,   0.0000000000)
 A2 = (   0.0000000000,   5.6390000000,   0.0000000000)
 A3 = (   0.0000000000,   0.0000000000,   5.6390000000)


Analysis of symmetry for initial positions (statically):
=====================================================================
 Subroutine PRICEL returns following result:
 
  LATTYP: Found a face centered cubic cell.
 ALAT       =     5.6390000000
  
  Lattice vectors:
  
 A1 = (   2.8195000000,   2.8195000000,  -0.0000000000)
 A2 = (   2.8195000000,   0.0000000000,  -2.8195000000)
 A3 = (   0.0000000000,   2.8195000000,  -2.8195000000)
 
   4 primitive cells build up your supercell.
 

 Routine SETGRP: Setting up the symmetry group for a 
 simple cubic supercell.


 Subroutine GETGRP returns: Found 48 space group operations
 (whereof 48 operations were pure point group operations)
 out of a pool of 48 trial point group operations.


The static configuration has the point symmetry O_h .


Analysis of symmetry for dynamics (positions and initial velocities):
=====================================================================
 Subroutine PRICEL returns following result:
 
  LATTYP: Found a face centered cubic cell.
 ALAT       =     5.6390000000
  
  Lattice vectors:
  
 A1 = (   2.8195000000,   2.8195000000,  -0.0000000000)
 A2 = (   2.8195000000,   0.0000000000,  -2.8195000000)
 A3 = (   0.0000000000,   2.8195000000,  -2.8195000000)
 
   4 primitive cells build up your supercell.
 

 Routine SETGRP: Setting up the symmetry group for a 
 simple cubic supercell.


 Subroutine GETGRP returns: Found 48 space group operations
 (whereof 48 operations were pure point group operations)
 out of a pool of 48 trial point group operations.


The dynamic configuration has the point symmetry O_h .


Analysis of structural, dynamic, and magnetic symmetry:
=====================================================================
 Subroutine PRICEL returns following result:
 
  LATTYP: Found a face centered cubic cell.
 ALAT       =     5.6390000000
  
  Lattice vectors:
  
 A1 = (   2.8195000000,   2.8195000000,  -0.0000000000)
 A2 = (   2.8195000000,   0.0000000000,  -2.8195000000)
 A3 = (   0.0000000000,   2.8195000000,  -2.8195000000)
 
   4 primitive cells build up your supercell.
 

 Routine SETGRP: Setting up the symmetry group for a 
 simple cubic supercell.


 Subroutine GETGRP returns: Found 48 space group operations
 (whereof 48 operations were pure point group operations)
 out of a pool of 48 trial point group operations.


The magnetic configuration has the point symmetry O_h .


 Subroutine INISYM returns: Found 48 space group operations
 (whereof 48 operations are pure point group operations),
 and found     4 'primitive' translations

 
 
 KPOINTS: k-points                                

Automatic generation of k-mesh.
Space group operators:
 irot       det(A)        alpha          n_x          n_y          n_z        tau_x        tau_y        tau_z
    1     1.000000     0.000000     1.000000     0.000000     0.000000     0.000000     0.000000     0.000000
    2    -1.000000     0.000000     1.000000     0.000000     0.000000     0.000000     0.000000     0.000000
    3     1.000000   120.000000    -0.577350    -0.577350    -0.577350     0.000000     0.000000     0.000000
    4    -1.000000   120.000000    -0.577350    -0.577350    -0.577350     0.000000     0.000000     0.000000
    5     1.000000   120.000000     0.577350     0.577350     0.577350     0.000000     0.000000     0.000000
    6    -1.000000   120.000000     0.577350     0.577350     0.577350     0.000000     0.000000     0.000000
    7     1.000000    90.000000     0.000000     0.000000    -1.000000     0.000000     0.000000     0.000000
    8    -1.000000    90.000000     0.000000     0.000000    -1.000000     0.000000     0.000000     0.000000
    9     1.000000   180.000000     0.000000     0.707107     0.707107     0.000000     0.000000     0.000000
   10    -1.000000   180.000000     0.000000     0.707107     0.707107     0.000000     0.000000     0.000000
   11     1.000000    90.000000     0.000000     1.000000     0.000000     0.000000     0.000000     0.000000
   12    -1.000000    90.000000     0.000000     1.000000     0.000000     0.000000     0.000000     0.000000
   13     1.000000   180.000000     0.000000     0.000000     1.000000     0.000000     0.000000     0.000000
   14    -1.000000   180.000000     0.000000     0.000000     1.000000     0.000000     0.000000     0.000000
   15     1.000000   120.000000    -0.577350     0.577350     0.577350     0.000000     0.000000     0.000000
   16    -1.000000   120.000000    -0.577350     0.577350     0.577350     0.000000     0.000000     0.000000
   17     1.000000   120.000000    -0.577350     0.577350    -0.577350     0.000000     0.000000     0.000000
   18    -1.000000   120.000000    -0.577350     0.577350    -0.577350     0.000000     0.000000     0.000000
   19     1.000000    90.000000     0.000000     0.000000     1.000000     0.000000     0.000000     0.000000
   20    -1.000000    90.000000     0.000000     0.000000     1.000000     0.000000     0.000000     0.000000
   21     1.000000    90.000000    -1.000000     0.000000     0.000000     0.000000     0.000000     0.000000
   22    -1.000000    90.000000    -1.000000     0.000000     0.000000     0.000000     0.000000     0.000000
   23     1.000000   180.000000     0.707107     0.000000     0.707107     0.000000     0.000000     0.000000
   24    -1.000000   180.000000     0.707107     0.000000     0.707107     0.000000     0.000000     0.000000
   25     1.000000   120.000000     0.577350    -0.577350     0.577350     0.000000     0.000000     0.000000
   26    -1.000000   120.000000     0.577350    -0.577350     0.577350     0.000000     0.000000     0.000000
   27     1.000000   120.000000    -0.577350    -0.577350     0.577350     0.000000     0.000000     0.000000
   28    -1.000000   120.000000    -0.577350    -0.577350     0.577350     0.000000     0.000000     0.000000
   29     1.000000   180.000000     1.000000     0.000000     0.000000     0.000000     0.000000     0.000000
   30    -1.000000   180.000000     1.000000     0.000000     0.000000     0.000000     0.000000     0.000000
   31     1.000000    90.000000     0.000000    -1.000000     0.000000     0.000000     0.000000     0.000000
   32    -1.000000    90.000000     0.000000    -1.000000     0.000000     0.000000     0.000000     0.000000
   33     1.000000   180.000000     0.707107     0.707107     0.000000     0.000000     0.000000     0.000000
   34    -1.000000   180.000000     0.707107     0.707107     0.000000     0.000000     0.000000     0.000000
   35     1.000000    90.000000     1.000000     0.000000     0.000000     0.000000     0.000000     0.000000
   36    -1.000000    90.000000     1.000000     0.000000     0.000000     0.000000     0.000000     0.000000
   37     1.000000   120.000000     0.577350    -0.577350    -0.577350     0.000000     0.000000     0.000000
   38    -1.000000   120.000000     0.577350    -0.577350    -0.577350     0.000000     0.000000     0.000000
   39     1.000000   180.000000     0.000000     1.000000     0.000000     0.000000     0.000000     0.000000
   40    -1.000000   180.000000     0.000000     1.000000     0.000000     0.000000     0.000000     0.000000
   41     1.000000   120.000000     0.577350     0.577350    -0.577350     0.000000     0.000000     0.000000
   42    -1.000000   120.000000     0.577350     0.577350    -0.577350     0.000000     0.000000     0.000000
   43     1.000000   180.000000     0.000000    -0.707107     0.707107     0.000000     0.000000     0.000000
   44    -1.000000   180.000000     0.000000    -0.707107     0.707107     0.000000     0.000000     0.000000
   45     1.000000   180.000000     0.707107    -0.707107     0.000000     0.000000     0.000000     0.000000
   46    -1.000000   180.000000     0.707107    -0.707107     0.000000     0.000000     0.000000     0.000000
   47     1.000000   180.000000     0.707107     0.000000    -0.707107     0.000000     0.000000     0.000000
   48    -1.000000   180.000000     0.707107     0.000000    -0.707107     0.000000     0.000000     0.000000
 
 Subroutine IBZKPT returns following result:
 ===========================================
 
 Found     10 irreducible k-points:
 
 Following reciprocal coordinates:
            Coordinates               Weight
  0.000000  0.000000  0.000000      1.000000
  0.250000  0.000000  0.000000      6.000000
  0.500000  0.000000  0.000000      3.000000
  0.250000  0.250000  0.000000     12.000000
  0.500000  0.250000  0.000000     12.000000
  0.500000  0.500000  0.000000      3.000000
  0.250000  0.250000  0.250000      8.000000
  0.500000  0.250000  0.250000     12.000000
  0.500000  0.500000  0.250000      6.000000
  0.500000  0.500000  0.500000      1.000000
 
 Following cartesian coordinates:
            Coordinates               Weight
  0.000000  0.000000  0.000000      1.000000
  0.250000  0.000000  0.000000      6.000000
  0.500000  0.000000  0.000000      3.000000
  0.250000  0.250000  0.000000     12.000000
  0.500000  0.250000  0.000000     12.000000
  0.500000  0.500000  0.000000      3.000000
  0.250000  0.250000  0.250000      8.000000
  0.500000  0.250000  0.250000     12.000000
  0.500000  0.500000  0.250000      6.000000
  0.500000  0.500000  0.500000      1.000000
 


--------------------------------------------------------------------------------------------------------




 Dimension of arrays:
   k-points           NKPTS =     10   k-points in BZ     NKDIM =     10   number of bands    NBANDS=     37
   number of dos      NEDOS =    301   number of ions     NIONS =      8
   non local maximal  LDIM  =      4   non local SUM 2l+1 LMDIM =      8
   total plane-waves  NPLWV =  13824
   max r-space proj   IRMAX =      1   max aug-charges    IRDMAX=   2416
   dimension x,y,z NGX =    24 NGY =   24 NGZ =   24
   dimension x,y,z NGXF=    48 NGYF=   48 NGZF=   48
   support grid    NGXF=    48 NGYF=   48 NGZF=   48
   ions per type =               4   4
 NGX,Y,Z   is equivalent  to a cutoff of   7.08,  7.08,  7.08 a.u.
 NGXF,Y,Z  is equivalent  to a cutoff of  14.15, 14.15, 14.15 a.u.


 I would recommend the setting:
   dimension x,y,z NGX =    24 NGY =   24 NGZ =   24
 SYSTEM =  unknown system                          
 POSCAR =  Natriumklorid                           

 Startparameter for this run:
   NWRITE =      2    write-flag & timer
   PREC   = normal    normal or accurate (medium, high low for compatibility)
   ISTART =      0    job   : 0-new  1-cont  2-samecut
   ICHARG =      2    charge: 1-file 2-atom 10-const
   ISPIN  =      2    spin polarized calculation?
   LNONCOLLINEAR =      F non collinear calculations
   LSORBIT =      F    spin-orbit coupling
   INIWAV =      1    electr: 0-lowe 1-rand  2-diag
   LASPH  =      F    aspherical Exc in radial PAW
   METAGGA=      F    non-selfconsistent MetaGGA calc.

 Electronic Relaxation 1
   ENCUT  =  300.0 eV  22.05 Ry    4.70 a.u.   7.96  7.96  7.96*2*pi/ulx,y,z
   ENINI  =  300.0     initial cutoff
   ENAUG  =  368.1 eV  augmentation charge cutoff
   NELM   =     40;   NELMIN=  2; NELMDL= -5     # of ELM steps 
   EDIFF  = 0.1E-05   stopping-criterion for ELM
   LREAL  =      F    real-space projection
   NLSPLINE    = F    spline interpolate recip. space projectors
   LCOMPAT=      F    compatible to vasp.4.4
   GGA_COMPAT  = T    GGA compatible to vasp.4.4-vasp.4.6
   LMAXPAW     = -100 max onsite density
   LMAXMIX     =    2 max onsite mixed and CHGCAR
   VOSKOWN=      0    Vosko Wilk Nusair interpolation
   ROPT   =    0.00000   0.00000
 Ionic relaxation
   EDIFFG = 0.1E-04   stopping-criterion for IOM
   NSW    =    300    number of steps for IOM
   NBLOCK =      1;   KBLOCK =    300    inner block; outer block 
   IBRION =      1    ionic relax: 0-MD 1-quasi-New 2-CG
   NFREE  =      0    steps in history (QN), initial steepest desc. (CG)
   ISIF   =      4    stress and relaxation
   IWAVPR =     11    prediction:  0-non 1-charg 2-wave 3-comb
   ISYM   =      2    0-nonsym 1-usesym 2-fastsym
   LCORR  =      T    Harris-Foulkes like correction to forces

   POTIM  = 0.5000    time-step for ionic-motion
   TEIN   =    0.0    initial temperature
   TEBEG  =    0.0;   TEEND  =   0.0 temperature during run
   SMASS  =  -3.00    Nose mass-parameter (am)
   estimated Nose-frequenzy (Omega)   =  0.10E-29 period in steps =****** mass=  -0.727E-27a.u.
   SCALEE = 1.0000    scale energy and forces
   NPACO  =    256;   APACO  = 16.0  distance and # of slots for P.C.
   PSTRESS=    0.0 pullay stress

  Mass of Ions in am
   POMASS =  22.99 35.45
  Ionic Valenz
   ZVAL   =   7.00  7.00
  Atomic Wigner-Seitz radii
   RWIGS  =  -1.00 -1.00
  virtual crystal weights 
   VCA    =   1.00  1.00
   NELECT =      56.0000    total number of electrons
   NUPDOWN=      -1.0000    fix difference up-down

 DOS related values:
   EMIN   =  10.00;   EMAX   =-10.00  energy-range for DOS
   EFERMI =   0.00
   ISMEAR =     0;   SIGMA  =   0.10  broadening in eV -4-tet -1-fermi 0-gaus

 Electronic relaxation 2 (details)
   IALGO  =     38    algorithm
   LDIAG  =      T    sub-space diagonalisation (order eigenvalues)
   LSUBROT=      F    optimize rotation matrix (better conditioning)
   TURBO    =      0    0=normal 1=particle mesh
   IRESTART =      0    0=no restart 2=restart with 2 vectors
   NREBOOT  =      0    no. of reboots
   NMIN     =      0    reboot dimension
   EREF     =   0.00    reference energy to select bands
   IMIX   =      4    mixing-type and parameters
     AMIX     =   0.40;   BMIX     =  1.00
     AMIX_MAG =   1.60;   BMIX_MAG =  1.00
     AMIN     =   0.10
     WC   =   100.;   INIMIX=   1;  MIXPRE=   1;  MAXMIX= -45

 Intra band minimization:
   WEIMIN = 0.0010     energy-eigenvalue tresh-hold
   EBREAK =  0.68E-08  absolut break condition
   DEPER  =   0.30     relativ break condition  

   TIME   =   0.40     timestep for ELM

  volume/ion in A,a.u.               =      22.41       151.26
  Fermi-wavevector in a.u.,A,eV,Ry     =   1.110714  2.098944 16.785299  1.233685
  Thomas-Fermi vector in A             =   2.247268
 
 Write flags
   LWAVE  =      T    write WAVECAR
   LCHARG =      T    write CHGCAR
   LVTOT  =      F    write LOCPOT, total local potential
   LVHAR  =      F    write LOCPOT, Hartree potential only
   LELF   =      T    write electronic localiz. function (ELF)
   LORBIT =     11    0 simple, 1 ext, 2 COOP (PROOUT)


 Dipole corrections
   LMONO  =      F    monopole corrections only (constant potential shift)
   LDIPOL =      F    correct potential (dipole corrections)
   IDIPOL =      0    1-x, 2-y, 3-z, 4-all directions 
   EPSILON=  1.0000000 bulk dielectric constant

 Exchange correlation treatment:
   GGA     =    --    GGA type
   LEXCH   =     8    internal setting for exchange type
   VOSKOWN=      0    Vosko Wilk Nusair interpolation
   LHFCALC =     F    Hartree Fock is set to
   LHFONE  =     F    Hartree Fock one center treatment
   AEXX    =    0.0000 exact exchange contribution

 Linear response parameters
   LEPSILON=     F    determine dielectric tensor
   LRPA    =     F    only Hartree local field effects (RPA)
   LNABLA  =     F    use nabla operator in PAW spheres
   LVEL    =     F    velocity operator in full k-point grid
   LINTERFAST=   F  fast interpolation
   KINTER  =     0    interpolate to denser k-point grid
   CSHIFT  =0.1000    complex shift for real part using Kramers Kronig
   OMEGAMAX=  -1.0    maximum frequency
   DEG_THRESHOLD= 0.2000000E-02 threshold for treating states as degnerate
   RTIME   =    0.100 relaxation time in fs

 Orbital magnetization related:
   ORBITALMAG=     F  switch on orbital magnetization
   LCHIMAG   =     F  perturbation theory with respect to B field
   DQ        =  0.001000  dq finite difference perturbation B field



--------------------------------------------------------------------------------------------------------


 quasi-Newton-method for relaxation of ions
 charge density and potential will be updated during run
 spin polarized calculation
 Variant of blocked Davidson
 Davidson routine will perform the subspace rotation
 perform sub-space diagonalisation
    after iterative eigenvector-optimisation
 modified Broyden-mixing scheme, WC =      100.0
 initial mixing is a Kerker type mixing with AMIX =  0.4000 and BMIX =      1.0000
 Hartree-type preconditioning will be used
 using additional bands            9
 reciprocal scheme for non local part
 use partial core corrections
 calculate Harris-corrections to forces 
   (improved forces if not selfconsistent)
 use gradient corrections 
 use of overlap-Matrix (Vanderbilt PP)
 Gauss-broadening in eV      SIGMA  =   0.10


--------------------------------------------------------------------------------------------------------


  energy-cutoff  :      300.00
  volume of cell :      179.31
      direct lattice vectors                 reciprocal lattice vectors
     5.639000000  0.000000000  0.000000000     0.177336407  0.000000000  0.000000000
     0.000000000  5.639000000  0.000000000     0.000000000  0.177336407  0.000000000
     0.000000000  0.000000000  5.639000000     0.000000000  0.000000000  0.177336407

  length of vectors
     5.639000000  5.639000000  5.639000000     0.177336407  0.177336407  0.177336407


 
 k-points in units of 2pi/SCALE and weight: k-points                                
   0.00000000  0.00000000  0.00000000       0.016
   0.25000000  0.00000000  0.00000000       0.094
   0.50000000  0.00000000  0.00000000       0.047
   0.25000000  0.25000000  0.00000000       0.188
   0.50000000  0.25000000  0.00000000       0.188
   0.50000000  0.50000000  0.00000000       0.047
   0.25000000  0.25000000  0.25000000       0.125
   0.50000000  0.25000000  0.25000000       0.188
   0.50000000  0.50000000  0.25000000       0.094
   0.50000000  0.50000000  0.50000000       0.016
 
 k-points in reciprocal lattice and weights: k-points                                
   0.00000000  0.00000000  0.00000000       0.016
   0.25000000  0.00000000  0.00000000       0.094
   0.50000000  0.00000000  0.00000000       0.047
   0.25000000  0.25000000  0.00000000       0.188
   0.50000000  0.25000000  0.00000000       0.188
   0.50000000  0.50000000  0.00000000       0.047
   0.25000000  0.25000000  0.25000000       0.125
   0.50000000  0.25000000  0.25000000       0.188
   0.50000000  0.50000000  0.25000000       0.094
   0.50000000  0.50000000  0.50000000       0.016
 
 position of ions in fractional coordinates (direct lattice) 
   0.00000000  0.00000000  0.00000000
   0.00000000  0.50000000  0.50000000
   0.50000000  0.00000000  0.50000000
   0.50000000  0.50000000  0.00000000
   0.50000000  0.50000000  0.50000000
   0.50000000  0.00000000  0.00000000
   0.00000000  0.50000000  0.00000000
   0.00000000  0.00000000  0.50000000
 
 position of ions in cartesian coordinates  (Angst):
   0.00000000  0.00000000  0.00000000
   0.00000000  2.81950000  2.81950000
   2.81950000  0.00000000  2.81950000
   2.81950000  2.81950000  0.00000000
   2.81950000  2.81950000  2.81950000
   2.81950000  0.00000000  0.00000000
   0.00000000  2.81950000  0.00000000
   0.00000000  0.00000000  2.81950000
 


--------------------------------------------------------------------------------------------------------


 k-point  1 :   0.0000 0.0000 0.0000  plane waves:    2103
 k-point  2 :   0.2500 0.0000 0.0000  plane waves:    2096
 k-point  3 :   0.5000 0.0000 0.0000  plane waves:    2104
 k-point  4 :   0.2500 0.2500 0.0000  plane waves:    2107
 k-point  5 :   0.5000 0.2500 0.0000  plane waves:    2120
 k-point  6 :   0.5000 0.5000 0.0000  plane waves:    2096
 k-point  7 :   0.2500 0.2500 0.2500  plane waves:    2118
 k-point  8 :   0.5000 0.2500 0.2500  plane waves:    2134
 k-point  9 :   0.5000 0.5000 0.2500  plane waves:    2112
 k-point 10 :   0.5000 0.5000 0.5000  plane waves:    2176

 maximum and minimum number of plane-waves per node :      2176     2096

 maximum number of plane-waves:      2176
 maximum index in each direction: 
   IXMAX=    7   IYMAX=    7   IZMAX=    7
   IXMIN=   -8   IYMIN=   -8   IZMIN=   -8

 WARNING: aliasing errors must be expected set NGX to  32 to avoid them
 WARNING: aliasing errors must be expected set NGY to  32 to avoid them
 WARNING: aliasing errors must be expected set NGZ to  32 to avoid them
 aliasing errors are usually negligible using standard VASP settings
 and one can safely disregard these warnings

 serial   3D FFT for wavefunctions
 parallel 3D FFT for charge:
    minimum data exchange during FFTs selected (reduces bandwidth)


 total amount of memory used by VASP on root node    73815. kBytes
========================================================================

   base      :      30000. kBytes
   nonl-proj :       3063. kBytes
   fftplans  :       3916. kBytes
   grid      :      10266. kBytes
   one-center:         49. kBytes
   wavefun   :      26521. kBytes
 
     INWAV:  cpu time    0.0000: real time    0.0000
 Broyden mixing: mesh for mixing (old mesh)
   NGX = 15   NGY = 15   NGZ = 15
  (NGX  = 48   NGY  = 48   NGZ  = 48)
  gives a total of   3375 points

 initial charge density was supplied:
 charge density of overlapping atoms calculated
 number of electron      56.0000000 magnetization       8.0000000
 keeping initial charge density in first step


--------------------------------------------------------------------------------------------------------


 Maximum index for augmentation-charges         2109 (set IRDMAX)


--------------------------------------------------------------------------------------------------------


 First call to EWALD:  gamma=   0.314
 Maximum number of real-space cells 3x 3x 3
 Maximum number of reciprocal cells 3x 3x 3

 FEWALD executed in parallel
    FEWALD:  cpu time    0.0010: real time    0.0018


----------------------------------------- Iteration    1(   1)  ---------------------------------------


    POTLOK:  cpu time    0.1400: real time    0.1394
    SETDIJ:  cpu time    0.0330: real time    0.0338
     EDDAV:  cpu time    1.6418: real time    1.6418
       DOS:  cpu time    0.0020: real time    0.0018
    --------------------------------------------
      LOOP:  cpu time    1.8187: real time    1.8187

 eigenvalue-minimisations  :  1504
 total energy-change (2. order) : 0.4517151E+03  (-0.2060600E+04)
 number of electron      56.0000000 magnetization       8.0000000
 augmentation part       56.0000000 magnetization       8.0000000

 Free energy of the ion-electron system (eV)
  ---------------------------------------------------
  alpha Z        PSCENC =        85.91048004
  Ewald energy   TEWEN  =     -2840.17393023
  -Hartree energ DENC   =     -1134.18896163
  -exchange      EXHF   =         0.00000000
  -V(xc)+E(xc)   XCENC  =       180.18999194
  PAW double counting   =      2632.25201880    -2986.76674557
  entropy T*S    EENTRO =        -0.01272549
  eigenvalues    EBANDS =      -188.43395731
  atomic energy  EATOM  =      4702.93895100
  Solvation  Ediel_sol  =         0.00000000
  ---------------------------------------------------
  free energy    TOTEN  =       451.71512156 eV

  energy without entropy =      451.72784704  energy(sigma->0) =      451.72148430


--------------------------------------------------------------------------------------------------------




----------------------------------------- Iteration    1(   2)  ---------------------------------------


     EDDAV:  cpu time    1.8347: real time    1.8335
       DOS:  cpu time    0.0010: real time    0.0010
    --------------------------------------------
      LOOP:  cpu time    1.8367: real time    1.8351

 eigenvalue-minimisations  :  1740
 total energy-change (2. order) :-0.4338271E+03  (-0.4199471E+03)
 number of electron      56.0000000 magnetization       8.0000000
 augmentation part       56.0000000 magnetization       8.0000000

 Free energy of the ion-electron system (eV)
  ---------------------------------------------------
  alpha Z        PSCENC =        85.91048004
  Ewald energy   TEWEN  =     -2840.17393023
  -Hartree energ DENC   =     -1134.18896163
  -exchange      EXHF   =         0.00000000
  -V(xc)+E(xc)   XCENC  =       180.18999194
  PAW double counting   =      2632.25201880    -2986.76674557
  entropy T*S    EENTRO =        -0.00000000
  eigenvalues    EBANDS =      -622.27381823
  atomic energy  EATOM  =      4702.93895100
  Solvation  Ediel_sol  =         0.00000000
  ---------------------------------------------------
  free energy    TOTEN  =        17.88798613 eV

  energy without entropy =       17.88798613  energy(sigma->0) =       17.88798613


--------------------------------------------------------------------------------------------------------




----------------------------------------- Iteration    1(   3)  ---------------------------------------


     EDDAV:  cpu time    1.7547: real time    1.7540
       DOS:  cpu time    0.0010: real time    0.0011
    --------------------------------------------
      LOOP:  cpu time    1.7567: real time    1.7556

 eigenvalue-minimisations  :  1646
 total energy-change (2. order) :-0.4212217E+02  (-0.4193615E+02)
 number of electron      56.0000000 magnetization       8.0000000
 augmentation part       56.0000000 magnetization       8.0000000

 Free energy of the ion-electron system (eV)
  ---------------------------------------------------
  alpha Z        PSCENC =        85.91048004
  Ewald energy   TEWEN  =     -2840.17393023
  -Hartree energ DENC   =     -1134.18896163
  -exchange      EXHF   =         0.00000000
  -V(xc)+E(xc)   XCENC  =       180.18999194
  PAW double counting   =      2632.25201880    -2986.76674557
  entropy T*S    EENTRO =        -0.00000000
  eigenvalues    EBANDS =      -664.39599167
  atomic energy  EATOM  =      4702.93895100
  Solvation  Ediel_sol  =         0.00000000
  ---------------------------------------------------
  free energy    TOTEN  =       -24.23418731 eV

  energy without entropy =      -24.23418731  energy(sigma->0) =      -24.23418731


--------------------------------------------------------------------------------------------------------




----------------------------------------- Iteration    1(   4)  ---------------------------------------


     EDDAV:  cpu time    1.9607: real time    1.9596
       DOS:  cpu time    0.0010: real time    0.0011
    --------------------------------------------
      LOOP:  cpu time    1.9617: real time    1.9613

 eigenvalue-minimisations  :  1892
 total energy-change (2. order) :-0.1187940E+01  (-0.1185103E+01)
 number of electron      56.0000000 magnetization       8.0000000
 augmentation part       56.0000000 magnetization       8.0000000

 Free energy of the ion-electron system (eV)
  ---------------------------------------------------
  alpha Z        PSCENC =        85.91048004
  Ewald energy   TEWEN  =     -2840.17393023
  -Hartree energ DENC   =     -1134.18896163
  -exchange      EXHF   =         0.00000000
  -V(xc)+E(xc)   XCENC  =       180.18999194
  PAW double counting   =      2632.25201880    -2986.76674557
  entropy T*S    EENTRO =        -0.00000000
  eigenvalues    EBANDS =      -665.58393139
  atomic energy  EATOM  =      4702.93895100
  Solvation  Ediel_sol  =         0.00000000
  ---------------------------------------------------
  free energy    TOTEN  =       -25.42212704 eV

  energy without entropy =      -25.42212704  energy(sigma->0) =      -25.42212704


--------------------------------------------------------------------------------------------------------




----------------------------------------- Iteration    1(   5)  ---------------------------------------


     EDDAV:  cpu time    2.2197: real time    2.2180
       DOS:  cpu time    0.0010: real time    0.0011
    CHARGE:  cpu time    0.1110: real time    0.1114
    MIXING:  cpu time    0.0030: real time    0.0022
    --------------------------------------------
      LOOP:  cpu time    2.3356: real time    2.3333

 eigenvalue-minimisations  :  2209
 total energy-change (2. order) :-0.5336727E-01  (-0.5335645E-01)
 number of electron      55.9999206 magnetization       0.9103971
 augmentation part       13.9787090 magnetization       0.9961347

 Broyden mixing:
  rms(total) = 0.16628E+01    rms(broyden)= 0.16625E+01
  rms(prec ) = 0.18583E+01
  weight for this iteration     100.00

 Free energy of the ion-electron system (eV)
  ---------------------------------------------------
  alpha Z        PSCENC =        85.91048004
  Ewald energy   TEWEN  =     -2840.17393023
  -Hartree energ DENC   =     -1134.18896163
  -exchange      EXHF   =         0.00000000
  -V(xc)+E(xc)   XCENC  =       180.18999194
  PAW double counting   =      2632.25201880    -2986.76674557
  entropy T*S    EENTRO =        -0.00000000
  eigenvalues    EBANDS =      -665.63729866
  atomic energy  EATOM  =      4702.93895100
  Solvation  Ediel_sol  =         0.00000000
  ---------------------------------------------------
  free energy    TOTEN  =       -25.47549431 eV

  energy without entropy =      -25.47549431  energy(sigma->0) =      -25.47549431


--------------------------------------------------------------------------------------------------------




----------------------------------------- Iteration    1(   6)  ---------------------------------------


    POTLOK:  cpu time    0.1380: real time    0.1376
    SETDIJ:  cpu time    0.0340: real time    0.0343
     EDDAV:  cpu time    1.8877: real time    1.8860
       DOS:  cpu time    0.0010: real time    0.0011
    CHARGE:  cpu time    0.1110: real time    0.1106
    MIXING:  cpu time    0.0020: real time    0.0025
    --------------------------------------------
      LOOP:  cpu time    2.1737: real time    2.1728

 eigenvalue-minimisations  :  1807
 total energy-change (2. order) :-0.1125414E+01  (-0.3293259E+00)
 number of electron      55.9999206 magnetization       0.2669789
 augmentation part       14.0849911 magnetization       0.2246766

 Broyden mixing:
  rms(total) = 0.61573E+00    rms(broyden)= 0.61557E+00
  rms(prec ) = 0.70077E+00
  weight for this iteration     100.00

 eigenvalues of (default mixing * dielectric matrix)
  average eigenvalue GAMMA=   0.7364
  0.7364

 Free energy of the ion-electron system (eV)
  ---------------------------------------------------
  alpha Z        PSCENC =        85.91048004
  Ewald energy   TEWEN  =     -2840.17393023
  -Hartree energ DENC   =     -1145.72432830
  -exchange      EXHF   =         0.00000000
  -V(xc)+E(xc)   XCENC  =       181.00950240
  PAW double counting   =      2682.14092121    -3036.75146796
  entropy T*S    EENTRO =        -0.00000000
  eigenvalues    EBANDS =      -655.95103630
  atomic energy  EATOM  =      4702.93895100
  Solvation  Ediel_sol  =         0.00000000
  ---------------------------------------------------
  free energy    TOTEN  =       -26.60090814 eV

  energy without entropy =      -26.60090814  energy(sigma->0) =      -26.60090814


--------------------------------------------------------------------------------------------------------




----------------------------------------- Iteration    1(   7)  ---------------------------------------


    POTLOK:  cpu time    0.1340: real time    0.1337
    SETDIJ:  cpu time    0.0340: real time    0.0343
     EDDAV:  cpu time    1.8377: real time    1.8372
       DOS:  cpu time    0.0010: real time    0.0011
    CHARGE:  cpu time    0.1110: real time    0.1106
    MIXING:  cpu time    0.0030: real time    0.0026
    --------------------------------------------
      LOOP:  cpu time    2.1217: real time    2.1203

 eigenvalue-minimisations  :  1748
 total energy-change (2. order) :-0.4475573E+00  (-0.5088061E-01)
 number of electron      55.9999206 magnetization      -0.0700920
 augmentation part       14.1141264 magnetization      -0.0527518

 Broyden mixing:
  rms(total) = 0.14336E+00    rms(broyden)= 0.14331E+00
  rms(prec ) = 0.25720E+00
  weight for this iteration     100.00

 eigenvalues of (default mixing * dielectric matrix)
  average eigenvalue GAMMA=   0.8503
  0.9836  0.7169

 Free energy of the ion-electron system (eV)
  ---------------------------------------------------
  alpha Z        PSCENC =        85.91048004
  Ewald energy   TEWEN  =     -2840.17393023
  -Hartree energ DENC   =     -1148.14251140
  -exchange      EXHF   =         0.00000000
  -V(xc)+E(xc)   XCENC  =       181.04309015
  PAW double counting   =      2695.23130369    -3050.24153687
  entropy T*S    EENTRO =        -0.00000000
  eigenvalues    EBANDS =      -653.61431186
  atomic energy  EATOM  =      4702.93895100
  Solvation  Ediel_sol  =         0.00000000
  ---------------------------------------------------
  free energy    TOTEN  =       -27.04846548 eV

  energy without entropy =      -27.04846548  energy(sigma->0) =      -27.04846548


--------------------------------------------------------------------------------------------------------




----------------------------------------- Iteration    1(   8)  ---------------------------------------


    POTLOK:  cpu time    0.1350: real time    0.1337
    SETDIJ:  cpu time    0.0340: real time    0.0343
     EDDAV:  cpu time    1.8747: real time    1.8735
       DOS:  cpu time    0.0010: real time    0.0011
    CHARGE:  cpu time    0.1100: real time    0.1107
    MIXING:  cpu time    0.0030: real time    0.0027
    --------------------------------------------
      LOOP:  cpu time    2.1577: real time    2.1567

 eigenvalue-minimisations  :  1791
 total energy-change (2. order) :-0.2366633E-01  (-0.1351647E-01)
 number of electron      55.9999206 magnetization      -0.0219616
 augmentation part       14.1306318 magnetization      -0.0240083

 Broyden mixing:
  rms(total) = 0.72780E-01    rms(broyden)= 0.72746E-01
  rms(prec ) = 0.12617E+00
  weight for this iteration     100.00

 eigenvalues of (default mixing * dielectric matrix)
  average eigenvalue GAMMA=   0.9932
  0.7047  0.9151  1.3597

 Free energy of the ion-electron system (eV)
  ---------------------------------------------------
  alpha Z        PSCENC =        85.91048004
  Ewald energy   TEWEN  =     -2840.17393023
  -Hartree energ DENC   =     -1149.85103094
  -exchange      EXHF   =         0.00000000
  -V(xc)+E(xc)   XCENC  =       181.47460415
  PAW double counting   =      2706.10189452    -3061.66874985
  entropy T*S    EENTRO =        -0.00000000
  eigenvalues    EBANDS =      -651.80435049
  atomic energy  EATOM  =      4702.93895100
  Solvation  Ediel_sol  =         0.00000000
  ---------------------------------------------------
  free energy    TOTEN  =       -27.07213181 eV

  energy without entropy =      -27.07213181  energy(sigma->0) =      -27.07213181


--------------------------------------------------------------------------------------------------------




----------------------------------------- Iteration    1(   9)  ---------------------------------------


    POTLOK:  cpu time    0.1330: real time    0.1335
    SETDIJ:  cpu time    0.0350: real time    0.0347
     EDDAV:  cpu time    1.9217: real time    1.9200
       DOS:  cpu time    0.0010: real time    0.0011
    CHARGE:  cpu time    0.1110: real time    0.1106
    MIXING:  cpu time    0.0030: real time    0.0029
    --------------------------------------------
      LOOP:  cpu time    2.2057: real time    2.2034

 eigenvalue-minimisations  :  1846
 total energy-change (2. order) :-0.1527397E-01  (-0.2274843E-02)
 number of electron      55.9999206 magnetization       0.0132279
 augmentation part       14.1342636 magnetization       0.0122798

 Broyden mixing:
  rms(total) = 0.35898E-01    rms(broyden)= 0.35894E-01
  rms(prec ) = 0.53223E-01
  weight for this iteration     100.00

 eigenvalues of (default mixing * dielectric matrix)
  average eigenvalue GAMMA=   1.1549
  2.0879  1.0429  0.8007  0.6881

 Free energy of the ion-electron system (eV)
  ---------------------------------------------------
  alpha Z        PSCENC =        85.91048004
  Ewald energy   TEWEN  =     -2840.17393023
  -Hartree energ DENC   =     -1149.87091633
  -exchange      EXHF   =         0.00000000
  -V(xc)+E(xc)   XCENC  =       181.70301460
  PAW double counting   =      2709.14490064    -3065.14864511
  entropy T*S    EENTRO =        -0.00000000
  eigenvalues    EBANDS =      -651.59126039
  atomic energy  EATOM  =      4702.93895100
  Solvation  Ediel_sol  =         0.00000000
  ---------------------------------------------------
  free energy    TOTEN  =       -27.08740578 eV

  energy without entropy =      -27.08740578  energy(sigma->0) =      -27.08740578


--------------------------------------------------------------------------------------------------------




----------------------------------------- Iteration    1(  10)  ---------------------------------------


    POTLOK:  cpu time    0.1340: real time    0.1335
    SETDIJ:  cpu time    0.0340: real time    0.0343
     EDDAV:  cpu time    1.8657: real time    1.8651
       DOS:  cpu time    0.0010: real time    0.0011
    CHARGE:  cpu time    0.1110: real time    0.1105
    MIXING:  cpu time    0.0030: real time    0.0031
    --------------------------------------------
      LOOP:  cpu time    2.1487: real time    2.1484

 eigenvalue-minimisations  :  1781
 total energy-change (2. order) :-0.4737657E-02  (-0.4967702E-03)
 number of electron      55.9999206 magnetization       0.0064409
 augmentation part       14.1335214 magnetization       0.0083536

 Broyden mixing:
  rms(total) = 0.12012E-01    rms(broyden)= 0.12011E-01
  rms(prec ) = 0.15354E-01
  weight for this iteration     100.00

 eigenvalues of (default mixing * dielectric matrix)
  average eigenvalue GAMMA=   1.2612
  2.7507  1.2140  0.9469  0.7387  0.6558

 Free energy of the ion-electron system (eV)
  ---------------------------------------------------
  alpha Z        PSCENC =        85.91048004
  Ewald energy   TEWEN  =     -2840.17393023
  -Hartree energ DENC   =     -1149.46194488
  -exchange      EXHF   =         0.00000000
  -V(xc)+E(xc)   XCENC  =       181.77705438
  PAW double counting   =      2708.64642676    -3064.84423771
  entropy T*S    EENTRO =        -0.00000000
  eigenvalues    EBANDS =      -651.88494279
  atomic energy  EATOM  =      4702.93895100
  Solvation  Ediel_sol  =         0.00000000
  ---------------------------------------------------
  free energy    TOTEN  =       -27.09214344 eV

  energy without entropy =      -27.09214344  energy(sigma->0) =      -27.09214344


--------------------------------------------------------------------------------------------------------




----------------------------------------- Iteration    1(  11)  ---------------------------------------


    POTLOK:  cpu time    0.1350: real time    0.1345
    SETDIJ:  cpu time    0.0340: real time    0.0344
     EDDAV:  cpu time    1.9547: real time    1.9540
       DOS:  cpu time    0.0020: real time    0.0011
    CHARGE:  cpu time    0.1100: real time    0.1108
    MIXING:  cpu time    0.0040: real time    0.0033
    --------------------------------------------
      LOOP:  cpu time    2.2407: real time    2.2387

 eigenvalue-minimisations  :  1859
 total energy-change (2. order) :-0.9543194E-03  (-0.1067541E-03)
 number of electron      55.9999206 magnetization       0.0002206
 augmentation part       14.1329180 magnetization      -0.0001923

 Broyden mixing:
  rms(total) = 0.39710E-02    rms(broyden)= 0.39698E-02
  rms(prec ) = 0.51495E-02
  weight for this iteration     100.00

 eigenvalues of (default mixing * dielectric matrix)
  average eigenvalue GAMMA=   1.2115
  2.7767  1.2797  0.9186  0.9186  0.7361  0.6389

 Free energy of the ion-electron system (eV)
  ---------------------------------------------------
  alpha Z        PSCENC =        85.91048004
  Ewald energy   TEWEN  =     -2840.17393023
  -Hartree energ DENC   =     -1149.28834049
  -exchange      EXHF   =         0.00000000
  -V(xc)+E(xc)   XCENC  =       181.78507313
  PAW double counting   =      2707.88688189    -3064.12347171
  entropy T*S    EENTRO =        -0.00000000
  eigenvalues    EBANDS =      -652.02874139
  atomic energy  EATOM  =      4702.93895100
  Solvation  Ediel_sol  =         0.00000000
  ---------------------------------------------------
  free energy    TOTEN  =       -27.09309776 eV

  energy without entropy =      -27.09309776  energy(sigma->0) =      -27.09309776


--------------------------------------------------------------------------------------------------------




----------------------------------------- Iteration    1(  12)  ---------------------------------------


    POTLOK:  cpu time    0.1340: real time    0.1337
    SETDIJ:  cpu time    0.0340: real time    0.0344
     EDDAV:  cpu time    1.9867: real time    1.9850
       DOS:  cpu time    0.0010: real time    0.0011
    CHARGE:  cpu time    0.1110: real time    0.1104
    MIXING:  cpu time    0.0030: real time    0.0035
    --------------------------------------------
      LOOP:  cpu time    2.2697: real time    2.2687

 eigenvalue-minimisations  :  1916
 total energy-change (2. order) :-0.1228141E-03  (-0.1092806E-04)
 number of electron      55.9999206 magnetization      -0.0017813
 augmentation part       14.1329641 magnetization      -0.0015944

 Broyden mixing:
  rms(total) = 0.21928E-02    rms(broyden)= 0.21927E-02
  rms(prec ) = 0.29783E-02
  weight for this iteration     100.00

 eigenvalues of (default mixing * dielectric matrix)
  average eigenvalue GAMMA=   1.2814
  2.6791  2.0255  1.1775  0.9395  0.7779  0.7413  0.6287

 Free energy of the ion-electron system (eV)
  ---------------------------------------------------
  alpha Z        PSCENC =        85.91048004
  Ewald energy   TEWEN  =     -2840.17393023
  -Hartree energ DENC   =     -1149.26225851
  -exchange      EXHF   =         0.00000000
  -V(xc)+E(xc)   XCENC  =       181.78328165
  PAW double counting   =      2707.48550515    -3063.72300841
  entropy T*S    EENTRO =        -0.00000000
  eigenvalues    EBANDS =      -652.05224126
  atomic energy  EATOM  =      4702.93895100
  Solvation  Ediel_sol  =         0.00000000
  ---------------------------------------------------
  free energy    TOTEN  =       -27.09322057 eV

  energy without entropy =      -27.09322057  energy(sigma->0) =      -27.09322057


--------------------------------------------------------------------------------------------------------




----------------------------------------- Iteration    1(  13)  ---------------------------------------


    POTLOK:  cpu time    0.1340: real time    0.1338
    SETDIJ:  cpu time    0.0340: real time    0.0348
     EDDAV:  cpu time    1.9277: real time    1.9264
       DOS:  cpu time    0.0010: real time    0.0011
    CHARGE:  cpu time    0.1110: real time    0.1103
    MIXING:  cpu time    0.0040: real time    0.0037
    --------------------------------------------
      LOOP:  cpu time    2.2127: real time    2.2108

 eigenvalue-minimisations  :  1843
 total energy-change (2. order) :-0.5459337E-04  (-0.4314006E-05)
 number of electron      55.9999206 magnetization      -0.0000938
 augmentation part       14.1330994 magnetization      -0.0001157

 Broyden mixing:
  rms(total) = 0.76040E-03    rms(broyden)= 0.76032E-03
  rms(prec ) = 0.10538E-02
  weight for this iteration     100.00

 eigenvalues of (default mixing * dielectric matrix)
  average eigenvalue GAMMA=   1.3383
  2.8110  2.5478  1.2506  1.0471  0.9261  0.7566  0.7398  0.6276

 Free energy of the ion-electron system (eV)
  ---------------------------------------------------
  alpha Z        PSCENC =        85.91048004
  Ewald energy   TEWEN  =     -2840.17393023
  -Hartree energ DENC   =     -1149.25022152
  -exchange      EXHF   =         0.00000000
  -V(xc)+E(xc)   XCENC  =       181.78120529
  PAW double counting   =      2707.10191474    -3063.34061464
  entropy T*S    EENTRO =        -0.00000000
  eigenvalues    EBANDS =      -652.06105984
  atomic energy  EATOM  =      4702.93895100
  Solvation  Ediel_sol  =         0.00000000
  ---------------------------------------------------
  free energy    TOTEN  =       -27.09327517 eV

  energy without entropy =      -27.09327517  energy(sigma->0) =      -27.09327517


--------------------------------------------------------------------------------------------------------




----------------------------------------- Iteration    1(  14)  ---------------------------------------


    POTLOK:  cpu time    0.1340: real time    0.1340
    SETDIJ:  cpu time    0.0340: real time    0.0344
     EDDAV:  cpu time    1.8147: real time    1.8141
       DOS:  cpu time    0.0010: real time    0.0011
    CHARGE:  cpu time    0.1110: real time    0.1104
    MIXING:  cpu time    0.0040: real time    0.0039
    --------------------------------------------
      LOOP:  cpu time    2.0997: real time    2.0986

 eigenvalue-minimisations  :  1697
 total energy-change (2. order) :-0.1144151E-04  (-0.1252312E-05)
 number of electron      55.9999206 magnetization       0.0000197
 augmentation part       14.1331102 magnetization      -0.0000281

 Broyden mixing:
  rms(total) = 0.18292E-03    rms(broyden)= 0.18287E-03
  rms(prec ) = 0.23501E-03
  weight for this iteration     100.00

 eigenvalues of (default mixing * dielectric matrix)
  average eigenvalue GAMMA=   1.3129
  3.0225  2.5506  1.3410  1.1282  0.9345  0.7705  0.7705  0.6274  0.6711

 Free energy of the ion-electron system (eV)
  ---------------------------------------------------
  alpha Z        PSCENC =        85.91048004
  Ewald energy   TEWEN  =     -2840.17393023
  -Hartree energ DENC   =     -1149.24741319
  -exchange      EXHF   =         0.00000000
  -V(xc)+E(xc)   XCENC  =       181.78010993
  PAW double counting   =      2706.91094099    -3063.15237533
  entropy T*S    EENTRO =        -0.00000000
  eigenvalues    EBANDS =      -652.06004982
  atomic energy  EATOM  =      4702.93895100
  Solvation  Ediel_sol  =         0.00000000
  ---------------------------------------------------
  free energy    TOTEN  =       -27.09328661 eV

  energy without entropy =      -27.09328661  energy(sigma->0) =      -27.09328661


--------------------------------------------------------------------------------------------------------




----------------------------------------- Iteration    1(  15)  ---------------------------------------


    POTLOK:  cpu time    0.1340: real time    0.1337
    SETDIJ:  cpu time    0.0340: real time    0.0344
     EDDAV:  cpu time    1.6857: real time    1.6833
       DOS:  cpu time    0.0010: real time    0.0011
    --------------------------------------------
      LOOP:  cpu time    1.8547: real time    1.8531

 eigenvalue-minimisations  :  1523
 total energy-change (2. order) :-0.9103269E-06  (-0.1025429E-06)
 number of electron      55.9999206 magnetization       0.0000197
 augmentation part       14.1331102 magnetization      -0.0000281

 Free energy of the ion-electron system (eV)
  ---------------------------------------------------
  alpha Z        PSCENC =        85.91048004
  Ewald energy   TEWEN  =     -2840.17393023
  -Hartree energ DENC   =     -1149.24987752
  -exchange      EXHF   =         0.00000000
  -V(xc)+E(xc)   XCENC  =       181.78019095
  PAW double counting   =      2706.91157588    -3063.15358031
  entropy T*S    EENTRO =        -0.00000000
  eigenvalues    EBANDS =      -652.05709733
  atomic energy  EATOM  =      4702.93895100
  Solvation  Ediel_sol  =         0.00000000
  ---------------------------------------------------
  free energy    TOTEN  =       -27.09328752 eV

  energy without entropy =      -27.09328752  energy(sigma->0) =      -27.09328752


--------------------------------------------------------------------------------------------------------




 average (electrostatic) potential at core
  the test charge radii are     0.9254  0.9406
  (the norm of the test charge is              1.0000)
       1 -55.0402       2 -55.0402       3 -55.0402       4 -55.0402       5 -93.4336
       6 -93.4336       7 -93.4336       8 -93.4336
 
 
 
 E-fermi :  -0.1662     XC(G=0):  -8.1698     alpha+bet : -8.2012


 spin component 1

 k-point     1 :       0.0000    0.0000    0.0000
  band No.  band energies     occupation 
      1     -21.4353      1.00000
      2     -21.4353      1.00000
      3     -21.4353      1.00000
      4     -21.4232      1.00000
      5     -21.4232      1.00000
      6     -21.4232      1.00000
      7     -21.4232      1.00000
      8     -21.4232      1.00000
      9     -21.4232      1.00000
     10     -21.4150      1.00000
     11     -21.4150      1.00000
     12     -21.4150      1.00000
     13     -13.2792      1.00000
     14     -12.8946      1.00000
     15     -12.8946      1.00000
     16     -12.8946      1.00000
     17      -2.2727      1.00000
     18      -2.2727      1.00000
     19      -2.2727      1.00000
     20      -1.2099      1.00000
     21      -1.2099      1.00000
     22      -1.2099      1.00000
     23      -1.2099      1.00000
     24      -1.2099      1.00000
     25      -1.2099      1.00000
     26      -0.6147      1.00000
     27      -0.6147      1.00000
     28      -0.6147      1.00000
     29       4.4880      0.00000
     30       6.9231      0.00000
     31       6.9231      0.00000
     32       6.9231      0.00000
     33       7.4622      0.00000
     34       7.4622      0.00000
     35       7.4622      0.00000
     36       8.5981      0.00000
     37       8.6012      0.00000

 k-point     2 :       0.2500    0.0000    0.0000
  band No.  band energies     occupation 
      1     -21.4335      1.00000
      2     -21.4335      1.00000
      3     -21.4335      1.00000
      4     -21.4249      1.00000
      5     -21.4249      1.00000
      6     -21.4242      1.00000
      7     -21.4242      1.00000
      8     -21.4220      1.00000
      9     -21.4220      1.00000
     10     -21.4191      1.00000
     11     -21.4162      1.00000
     12     -21.4162      1.00000
     13     -13.2176      1.00000
     14     -12.9451      1.00000
     15     -12.8860      1.00000
     16     -12.8860      1.00000
     17      -2.1430      1.00000
     18      -2.1430      1.00000
     19      -2.1314      1.00000
     20      -1.3983      1.00000
     21      -1.3983      1.00000
     22      -1.2902      1.00000
     23      -1.2902      1.00000
     24      -1.1313      1.00000
     25      -1.1313      1.00000
     26      -1.0061      1.00000
     27      -0.7118      1.00000
     28      -0.7118      1.00000
     29       5.1467      0.00000
     30       7.0556      0.00000
     31       7.4402      0.00000
     32       7.4402      0.00000
     33       7.7298      0.00000
     34       7.9462      0.00000
     35       7.9462      0.00000
     36       8.5958      0.00000
     37       8.6045      0.00000

 k-point     3 :       0.5000    0.0000    0.0000
  band No.  band energies     occupation 
      1     -21.4293      1.00000
      2     -21.4293      1.00000
      3     -21.4293      1.00000
      4     -21.4293      1.00000
      5     -21.4274      1.00000
      6     -21.4274      1.00000
      7     -21.4253      1.00000
      8     -21.4253      1.00000
      9     -21.4190      1.00000
     10     -21.4190      1.00000
     11     -21.4190      1.00000
     12     -21.4190      1.00000
     13     -13.0758      1.00000
     14     -13.0758      1.00000
     15     -12.8774      1.00000
     16     -12.8774      1.00000
     17      -1.7994      1.00000
     18      -1.7994      1.00000
     19      -1.7994      1.00000
     20      -1.7994      1.00000
     21      -1.6796      1.00000
     22      -1.6796      1.00000
     23      -1.3683      1.00000
     24      -1.3683      1.00000
     25      -0.9307      1.00000
     26      -0.9307      1.00000
     27      -0.9307      1.00000
     28      -0.9307      1.00000
     29       6.4589      0.00000
     30       6.4589      0.00000
     31       8.1983      0.00000
     32       8.1984      0.00000
     33       8.5128      0.00000
     34       8.5128      0.00000
     35       8.7460      0.00000
     36       8.9650      0.00000
     37       9.0118      0.00000

 k-point     4 :       0.2500    0.2500    0.0000
  band No.  band energies     occupation 
      1     -21.4340      1.00000
      2     -21.4340      1.00000
      3     -21.4318      1.00000
      4     -21.4301      1.00000
      5     -21.4244      1.00000
      6     -21.4236      1.00000
      7     -21.4236      1.00000
      8     -21.4215      1.00000
      9     -21.4215      1.00000
     10     -21.4210      1.00000
     11     -21.4175      1.00000
     12     -21.4152      1.00000
     13     -13.1628      1.00000
     14     -12.9278      1.00000
     15     -12.9278      1.00000
     16     -12.8859      1.00000
     17      -2.1067      1.00000
     18      -2.1067      1.00000
     19      -2.0185      1.00000
     20      -1.7292      1.00000
     21      -1.3706      1.00000
     22      -1.3089      1.00000
     23      -1.3089      1.00000
     24      -1.1441      1.00000
     25      -1.1441      1.00000
     26      -1.1087      1.00000
     27      -0.8253      1.00000
     28      -0.6840      1.00000
     29       5.6560      0.00000
     30       7.5569      0.00000
     31       7.5569      0.00000
     32       7.6259      0.00000
     33       8.1605      0.00000
     34       8.1605      0.00000
     35       8.4024      0.00000
     36       8.5999      0.00000
     37       8.6202      0.00000

 k-point     5 :       0.5000    0.2500    0.0000
  band No.  band energies     occupation 
      1     -21.4338      1.00000
      2     -21.4338      1.00000
      3     -21.4314      1.00000
      4     -21.4314      1.00000
      5     -21.4277      1.00000
      6     -21.4277      1.00000
      7     -21.4206      1.00000
      8     -21.4206      1.00000
      9     -21.4206      1.00000
     10     -21.4206      1.00000
     11     -21.4173      1.00000
     12     -21.4173      1.00000
     13     -13.0388      1.00000
     14     -13.0388      1.00000
     15     -12.8981      1.00000
     16     -12.8981      1.00000
     17      -2.0027      1.00000
     18      -2.0027      1.00000
     19      -1.8604      1.00000
     20      -1.8604      1.00000
     21      -1.6894      1.00000
     22      -1.6894      1.00000
     23      -1.1099      1.00000
     24      -1.1099      1.00000
     25      -1.0791      1.00000
     26      -1.0791      1.00000
     27      -0.8659      1.00000
     28      -0.8659      1.00000
     29       6.8159      0.00000
     30       6.8159      0.00000
     31       8.4365      0.00000
     32       8.4365      0.00000
     33       8.4909      0.00000
     34       8.4951      0.00000
     35       8.6566      0.00000
     36       8.7498      0.00000
     37       8.7506      0.00000

 k-point     6 :       0.5000    0.5000    0.0000
  band No.  band energies     occupation 
      1     -21.4354      1.00000
      2     -21.4354      1.00000
      3     -21.4354      1.00000
      4     -21.4354      1.00000
      5     -21.4241      1.00000
      6     -21.4241      1.00000
      7     -21.4241      1.00000
      8     -21.4241      1.00000
      9     -21.4171      1.00000
     10     -21.4171      1.00000
     11     -21.4171      1.00000
     12     -21.4171      1.00000
     13     -12.9602      1.00000
     14     -12.9602      1.00000
     15     -12.9602      1.00000
     16     -12.9602      1.00000
     17      -2.0686      1.00000
     18      -2.0686      1.00000
     19      -2.0686      1.00000
     20      -2.0686      1.00000
     21      -1.4028      1.00000
     22      -1.4028      1.00000
     23      -1.4028      1.00000
     24      -1.4028      1.00000
     25      -0.8804      1.00000
     26      -0.8804      1.00000
     27      -0.8804      1.00000
     28      -0.8804      1.00000
     29       7.5926      0.00000
     30       7.5926      0.00000
     31       7.5926      0.00000
     32       7.5926      0.00000
     33       8.5888      0.00000
     34       8.5982      0.00000
     35       8.6029      0.00000
     36       8.6106      0.00000
     37       9.0823      0.00000

 k-point     7 :       0.2500    0.2500    0.2500
  band No.  band energies     occupation 
      1     -21.4365      1.00000
      2     -21.4365      1.00000
      3     -21.4365      1.00000
      4     -21.4298      1.00000
      5     -21.4236      1.00000
      6     -21.4236      1.00000
      7     -21.4236      1.00000
      8     -21.4202      1.00000
      9     -21.4202      1.00000
     10     -21.4202      1.00000
     11     -21.4161      1.00000
     12     -21.4161      1.00000
     13     -13.1152      1.00000
     14     -12.9188      1.00000
     15     -12.9188      1.00000
     16     -12.9188      1.00000
     17      -2.1841      1.00000
     18      -2.1841      1.00000
     19      -2.1841      1.00000
     20      -1.7121      1.00000
     21      -1.3788      1.00000
     22      -1.3788      1.00000
     23      -1.3788      1.00000
     24      -1.0507      1.00000
     25      -1.0507      1.00000
     26      -1.0507      1.00000
     27      -0.7506      1.00000
     28      -0.7506      1.00000
     29       5.9622      0.00000
     30       7.5560      0.00000
     31       7.5560      0.00000
     32       7.5560      0.00000
     33       8.5472      0.00000
     34       8.5478      0.00000
     35       8.5699      0.00000
     36       8.7098      0.00000
     37       8.7116      0.00000

 k-point     8 :       0.5000    0.2500    0.2500
  band No.  band energies     occupation 
      1     -21.4387      1.00000
      2     -21.4387      1.00000
      3     -21.4362      1.00000
      4     -21.4362      1.00000
      5     -21.4232      1.00000
      6     -21.4232      1.00000
      7     -21.4194      1.00000
      8     -21.4194      1.00000
      9     -21.4181      1.00000
     10     -21.4181      1.00000
     11     -21.4179      1.00000
     12     -21.4179      1.00000
     13     -13.0096      1.00000
     14     -13.0096      1.00000
     15     -12.9097      1.00000
     16     -12.9097      1.00000
     17      -2.2661      1.00000
     18      -2.2661      1.00000
     19      -2.1102      1.00000
     20      -2.1102      1.00000
     21      -1.3763      1.00000
     22      -1.3763      1.00000
     23      -1.0261      1.00000
     24      -1.0261      1.00000
     25      -0.9452      1.00000
     26      -0.9452      1.00000
     27      -0.9052      1.00000
     28      -0.9052      1.00000
     29       6.7863      0.00000
     30       6.7863      0.00000
     31       7.7155      0.00000
     32       7.7155      0.00000
     33       8.5710      0.00000
     34       8.5969      0.00000
     35       8.6494      0.00000
     36       8.7542      0.00000
     37       8.9920      0.00000

 k-point     9 :       0.5000    0.5000    0.2500
  band No.  band energies     occupation 
      1     -21.4407      1.00000
      2     -21.4407      1.00000
      3     -21.4407      1.00000
      4     -21.4407      1.00000
      5     -21.4198      1.00000
      6     -21.4198      1.00000
      7     -21.4198      1.00000
      8     -21.4198      1.00000
      9     -21.4171      1.00000
     10     -21.4171      1.00000
     11     -21.4171      1.00000
     12     -21.4171      1.00000
     13     -12.9508      1.00000
     14     -12.9508      1.00000
     15     -12.9508      1.00000
     16     -12.9508      1.00000
     17      -2.3541      1.00000
     18      -2.3541      1.00000
     19      -2.3541      1.00000
     20      -2.3541      1.00000
     21      -1.0919      1.00000
     22      -1.0919      1.00000
     23      -1.0919      1.00000
     24      -1.0919      1.00000
     25      -0.8795      1.00000
     26      -0.8795      1.00000
     27      -0.8795      1.00000
     28      -0.8795      1.00000
     29       7.0297      0.00000
     30       7.0297      0.00000
     31       7.0297      0.00000
     32       7.0297      0.00000
     33       8.5860      0.00000
     34       8.5907      0.00000
     35       8.6056      0.00000
     36       8.6114      0.00000
     37       9.5743      0.00000

 k-point    10 :       0.5000    0.5000    0.5000
  band No.  band energies     occupation 
      1     -21.4445      1.00000
      2     -21.4445      1.00000
      3     -21.4445      1.00000
      4     -21.4445      1.00000
      5     -21.4172      1.00000
      6     -21.4172      1.00000
      7     -21.4172      1.00000
      8     -21.4172      1.00000
      9     -21.4172      1.00000
     10     -21.4172      1.00000
     11     -21.4172      1.00000
     12     -21.4172      1.00000
     13     -12.9414      1.00000
     14     -12.9414      1.00000
     15     -12.9414      1.00000
     16     -12.9414      1.00000
     17      -2.5410      1.00000
     18      -2.5410      1.00000
     19      -2.5410      1.00000
     20      -2.5410      1.00000
     21      -0.8788      1.00000
     22      -0.8788      1.00000
     23      -0.8788      1.00000
     24      -0.8788      1.00000
     25      -0.8788      1.00000
     26      -0.8788      1.00000
     27      -0.8788      1.00000
     28      -0.8788      1.00000
     29       6.6574      0.00000
     30       6.6574      0.00000
     31       6.6574      0.00000
     32       6.6574      0.00000
     33       8.5834      0.00000
     34       8.5834      0.00000
     35       8.5838      0.00000
     36       8.5867      0.00000
     37      10.0216      0.00000

 spin component 2

 k-point     1 :       0.0000    0.0000    0.0000
  band No.  band energies     occupation 
      1     -21.4353      1.00000
      2     -21.4353      1.00000
      3     -21.4353      1.00000
      4     -21.4232      1.00000
      5     -21.4232      1.00000
      6     -21.4232      1.00000
      7     -21.4232      1.00000
      8     -21.4232      1.00000
      9     -21.4232      1.00000
     10     -21.4150      1.00000
     11     -21.4150      1.00000
     12     -21.4150      1.00000
     13     -13.2792      1.00000
     14     -12.8946      1.00000
     15     -12.8946      1.00000
     16     -12.8946      1.00000
     17      -2.2727      1.00000
     18      -2.2727      1.00000
     19      -2.2727      1.00000
     20      -1.2099      1.00000
     21      -1.2099      1.00000
     22      -1.2099      1.00000
     23      -1.2099      1.00000
     24      -1.2099      1.00000
     25      -1.2099      1.00000
     26      -0.6147      1.00000
     27      -0.6147      1.00000
     28      -0.6147      1.00000
     29       4.4880      0.00000
     30       6.9230      0.00000
     31       6.9230      0.00000
     32       6.9230      0.00000
     33       7.4622      0.00000
     34       7.4622      0.00000
     35       7.4622      0.00000
     36       8.5923      0.00000
     37       8.6011      0.00000

 k-point     2 :       0.2500    0.0000    0.0000
  band No.  band energies     occupation 
      1     -21.4335      1.00000
      2     -21.4335      1.00000
      3     -21.4334      1.00000
      4     -21.4249      1.00000
      5     -21.4249      1.00000
      6     -21.4242      1.00000
      7     -21.4242      1.00000
      8     -21.4220      1.00000
      9     -21.4220      1.00000
     10     -21.4191      1.00000
     11     -21.4162      1.00000
     12     -21.4162      1.00000
     13     -13.2176      1.00000
     14     -12.9451      1.00000
     15     -12.8860      1.00000
     16     -12.8860      1.00000
     17      -2.1430      1.00000
     18      -2.1430      1.00000
     19      -2.1314      1.00000
     20      -1.3983      1.00000
     21      -1.3983      1.00000
     22      -1.2902      1.00000
     23      -1.2902      1.00000
     24      -1.1313      1.00000
     25      -1.1313      1.00000
     26      -1.0061      1.00000
     27      -0.7118      1.00000
     28      -0.7118      1.00000
     29       5.1466      0.00000
     30       7.0556      0.00000
     31       7.4402      0.00000
     32       7.4402      0.00000
     33       7.7298      0.00000
     34       7.9462      0.00000
     35       7.9462      0.00000
     36       8.6020      0.00000
     37       8.6055      0.00000

 k-point     3 :       0.5000    0.0000    0.0000
  band No.  band energies     occupation 
      1     -21.4293      1.00000
      2     -21.4293      1.00000
      3     -21.4293      1.00000
      4     -21.4293      1.00000
      5     -21.4274      1.00000
      6     -21.4274      1.00000
      7     -21.4253      1.00000
      8     -21.4253      1.00000
      9     -21.4190      1.00000
     10     -21.4190      1.00000
     11     -21.4190      1.00000
     12     -21.4190      1.00000
     13     -13.0758      1.00000
     14     -13.0758      1.00000
     15     -12.8774      1.00000
     16     -12.8774      1.00000
     17      -1.7994      1.00000
     18      -1.7994      1.00000
     19      -1.7994      1.00000
     20      -1.7994      1.00000
     21      -1.6796      1.00000
     22      -1.6796      1.00000
     23      -1.3683      1.00000
     24      -1.3683      1.00000
     25      -0.9307      1.00000
     26      -0.9307      1.00000
     27      -0.9307      1.00000
     28      -0.9307      1.00000
     29       6.4589      0.00000
     30       6.4589      0.00000
     31       8.1984      0.00000
     32       8.1987      0.00000
     33       8.5128      0.00000
     34       8.5128      0.00000
     35       8.7610      0.00000
     36       9.0650      0.00000
     37       9.0778      0.00000

 k-point     4 :       0.2500    0.2500    0.0000
  band No.  band energies     occupation 
      1     -21.4340      1.00000
      2     -21.4340      1.00000
      3     -21.4318      1.00000
      4     -21.4301      1.00000
      5     -21.4244      1.00000
      6     -21.4236      1.00000
      7     -21.4236      1.00000
      8     -21.4215      1.00000
      9     -21.4215      1.00000
     10     -21.4210      1.00000
     11     -21.4175      1.00000
     12     -21.4152      1.00000
     13     -13.1628      1.00000
     14     -12.9278      1.00000
     15     -12.9278      1.00000
     16     -12.8859      1.00000
     17      -2.1067      1.00000
     18      -2.1067      1.00000
     19      -2.0185      1.00000
     20      -1.7292      1.00000
     21      -1.3706      1.00000
     22      -1.3089      1.00000
     23      -1.3089      1.00000
     24      -1.1441      1.00000
     25      -1.1441      1.00000
     26      -1.1087      1.00000
     27      -0.8253      1.00000
     28      -0.6840      1.00000
     29       5.6560      0.00000
     30       7.5568      0.00000
     31       7.5568      0.00000
     32       7.6259      0.00000
     33       8.1605      0.00000
     34       8.1605      0.00000
     35       8.4021      0.00000
     36       8.6005      0.00000
     37       8.6216      0.00000

 k-point     5 :       0.5000    0.2500    0.0000
  band No.  band energies     occupation 
      1     -21.4338      1.00000
      2     -21.4338      1.00000
      3     -21.4314      1.00000
      4     -21.4314      1.00000
      5     -21.4277      1.00000
      6     -21.4277      1.00000
      7     -21.4206      1.00000
      8     -21.4206      1.00000
      9     -21.4206      1.00000
     10     -21.4206      1.00000
     11     -21.4173      1.00000
     12     -21.4173      1.00000
     13     -13.0388      1.00000
     14     -13.0388      1.00000
     15     -12.8981      1.00000
     16     -12.8981      1.00000
     17      -2.0027      1.00000
     18      -2.0027      1.00000
     19      -1.8604      1.00000
     20      -1.8604      1.00000
     21      -1.6894      1.00000
     22      -1.6894      1.00000
     23      -1.1099      1.00000
     24      -1.1099      1.00000
     25      -1.0791      1.00000
     26      -1.0791      1.00000
     27      -0.8659      1.00000
     28      -0.8659      1.00000
     29       6.8159      0.00000
     30       6.8159      0.00000
     31       8.4365      0.00000
     32       8.4365      0.00000
     33       8.5025      0.00000
     34       8.5075      0.00000
     35       8.7507      0.00000
     36       8.7507      0.00000
     37       9.0707      0.00000

 k-point     6 :       0.5000    0.5000    0.0000
  band No.  band energies     occupation 
      1     -21.4354      1.00000
      2     -21.4354      1.00000
      3     -21.4354      1.00000
      4     -21.4354      1.00000
      5     -21.4241      1.00000
      6     -21.4241      1.00000
      7     -21.4241      1.00000
      8     -21.4241      1.00000
      9     -21.4171      1.00000
     10     -21.4171      1.00000
     11     -21.4171      1.00000
     12     -21.4171      1.00000
     13     -12.9602      1.00000
     14     -12.9602      1.00000
     15     -12.9602      1.00000
     16     -12.9602      1.00000
     17      -2.0686      1.00000
     18      -2.0686      1.00000
     19      -2.0686      1.00000
     20      -2.0686      1.00000
     21      -1.4028      1.00000
     22      -1.4028      1.00000
     23      -1.4028      1.00000
     24      -1.4028      1.00000
     25      -0.8804      1.00000
     26      -0.8804      1.00000
     27      -0.8804      1.00000
     28      -0.8804      1.00000
     29       7.5926      0.00000
     30       7.5926      0.00000
     31       7.5926      0.00000
     32       7.5926      0.00000
     33       8.5885      0.00000
     34       8.9648      0.00000
     35       9.0621      0.00000
     36       9.0759      0.00000
     37       9.0823      0.00000

 k-point     7 :       0.2500    0.2500    0.2500
  band No.  band energies     occupation 
      1     -21.4365      1.00000
      2     -21.4365      1.00000
      3     -21.4365      1.00000
      4     -21.4298      1.00000
      5     -21.4236      1.00000
      6     -21.4236      1.00000
      7     -21.4236      1.00000
      8     -21.4202      1.00000
      9     -21.4202      1.00000
     10     -21.4202      1.00000
     11     -21.4161      1.00000
     12     -21.4161      1.00000
     13     -13.1152      1.00000
     14     -12.9188      1.00000
     15     -12.9188      1.00000
     16     -12.9188      1.00000
     17      -2.1841      1.00000
     18      -2.1841      1.00000
     19      -2.1841      1.00000
     20      -1.7121      1.00000
     21      -1.3788      1.00000
     22      -1.3788      1.00000
     23      -1.3788      1.00000
     24      -1.0507      1.00000
     25      -1.0507      1.00000
     26      -1.0507      1.00000
     27      -0.7506      1.00000
     28      -0.7506      1.00000
     29       5.9622      0.00000
     30       7.5560      0.00000
     31       7.5560      0.00000
     32       7.5560      0.00000
     33       8.5473      0.00000
     34       8.5605      0.00000
     35       8.5962      0.00000
     36       8.6640      0.00000
     37       8.7118      0.00000

 k-point     8 :       0.5000    0.2500    0.2500
  band No.  band energies     occupation 
      1     -21.4387      1.00000
      2     -21.4387      1.00000
      3     -21.4362      1.00000
      4     -21.4362      1.00000
      5     -21.4232      1.00000
      6     -21.4232      1.00000
      7     -21.4194      1.00000
      8     -21.4194      1.00000
      9     -21.4181      1.00000
     10     -21.4181      1.00000
     11     -21.4179      1.00000
     12     -21.4179      1.00000
     13     -13.0096      1.00000
     14     -13.0096      1.00000
     15     -12.9097      1.00000
     16     -12.9097      1.00000
     17      -2.2661      1.00000
     18      -2.2661      1.00000
     19      -2.1102      1.00000
     20      -2.1102      1.00000
     21      -1.3763      1.00000
     22      -1.3763      1.00000
     23      -1.0261      1.00000
     24      -1.0261      1.00000
     25      -0.9452      1.00000
     26      -0.9452      1.00000
     27      -0.9052      1.00000
     28      -0.9052      1.00000
     29       6.7863      0.00000
     30       6.7863      0.00000
     31       7.7155      0.00000
     32       7.7155      0.00000
     33       8.5684      0.00000
     34       8.5828      0.00000
     35       8.6296      0.00000
     36       8.7340      0.00000
     37       8.9722      0.00000

 k-point     9 :       0.5000    0.5000    0.2500
  band No.  band energies     occupation 
      1     -21.4407      1.00000
      2     -21.4407      1.00000
      3     -21.4407      1.00000
      4     -21.4407      1.00000
      5     -21.4198      1.00000
      6     -21.4198      1.00000
      7     -21.4198      1.00000
      8     -21.4198      1.00000
      9     -21.4171      1.00000
     10     -21.4171      1.00000
     11     -21.4171      1.00000
     12     -21.4171      1.00000
     13     -12.9508      1.00000
     14     -12.9508      1.00000
     15     -12.9508      1.00000
     16     -12.9508      1.00000
     17      -2.3541      1.00000
     18      -2.3541      1.00000
     19      -2.3541      1.00000
     20      -2.3541      1.00000
     21      -1.0919      1.00000
     22      -1.0919      1.00000
     23      -1.0919      1.00000
     24      -1.0919      1.00000
     25      -0.8795      1.00000
     26      -0.8795      1.00000
     27      -0.8795      1.00000
     28      -0.8795      1.00000
     29       7.0297      0.00000
     30       7.0297      0.00000
     31       7.0297      0.00000
     32       7.0297      0.00000
     33       8.5859      0.00000
     34       8.5895      0.00000
     35       8.6150      0.00000
     36       8.6492      0.00000
     37       9.5744      0.00000

 k-point    10 :       0.5000    0.5000    0.5000
  band No.  band energies     occupation 
      1     -21.4445      1.00000
      2     -21.4445      1.00000
      3     -21.4445      1.00000
      4     -21.4445      1.00000
      5     -21.4171      1.00000
      6     -21.4171      1.00000
      7     -21.4171      1.00000
      8     -21.4171      1.00000
      9     -21.4171      1.00000
     10     -21.4171      1.00000
     11     -21.4171      1.00000
     12     -21.4171      1.00000
     13     -12.9414      1.00000
     14     -12.9414      1.00000
     15     -12.9414      1.00000
     16     -12.9414      1.00000
     17      -2.5410      1.00000
     18      -2.5410      1.00000
     19      -2.5410      1.00000
     20      -2.5410      1.00000
     21      -0.8788      1.00000
     22      -0.8788      1.00000
     23      -0.8788      1.00000
     24      -0.8788      1.00000
     25      -0.8788      1.00000
     26      -0.8788      1.00000
     27      -0.8788      1.00000
     28      -0.8788      1.00000
     29       6.6574      0.00000
     30       6.6574      0.00000
     31       6.6574      0.00000
     32       6.6574      0.00000
     33       8.5833      0.00000
     34       8.5835      0.00000
     35       8.5837      0.00000
     36       8.5845      0.00000
     37      10.0215      0.00000


--------------------------------------------------------------------------------------------------------


 soft charge-density along one line, spin component           1
         0         1         2         3         4         5         6         7         8         9
 total charge-density along one line
 
 soft charge-density along one line, spin component           2
         0         1         2         3         4         5         6         7         8         9
 total charge-density along one line
 
 pseudopotential strength for first ion, spin component:           1
-24.791  -0.000  -0.000  14.143   0.000   0.000  -0.000   0.000
 -0.000 -24.791   0.000   0.000  14.143  -0.000  -0.000   0.000
 -0.000   0.000 -24.791   0.000  -0.000  14.143   0.000  -0.000
 14.143   0.000   0.000  -3.290  -0.000  -0.000   0.000  -0.000
  0.000  14.143  -0.000  -0.000  -3.290   0.000   0.000  -0.000
  0.000  -0.000  14.143  -0.000   0.000  -3.290  -0.000   0.000
 -0.000  -0.000   0.000   0.000   0.000  -0.000   1.436  -0.016
  0.000   0.000  -0.000  -0.000  -0.000   0.000  -0.016  -0.015
 pseudopotential strength for first ion, spin component:           2
-24.791   0.000   0.000  14.143  -0.000  -0.000  -0.000   0.000
  0.000 -24.791   0.000  -0.000  14.143  -0.000  -0.000   0.000
  0.000   0.000 -24.791  -0.000  -0.000  14.143   0.000  -0.000
 14.143  -0.000  -0.000  -3.290   0.000   0.000   0.000  -0.000
 -0.000  14.143  -0.000   0.000  -3.290   0.000   0.000  -0.000
 -0.000  -0.000  14.143   0.000   0.000  -3.290  -0.000   0.000
 -0.000  -0.000   0.000   0.000   0.000  -0.000   1.436  -0.016
  0.000   0.000  -0.000  -0.000  -0.000   0.000  -0.016  -0.015
 total augmentation occupancy for first ion, spin component:           1
  2.000   0.000   0.000   0.006   0.000  -0.000   0.000   0.000
  0.000   2.000  -0.000  -0.000   0.006  -0.000  -0.000  -0.000
  0.000  -0.000   2.000   0.000   0.000   0.006  -0.000   0.000
  0.006  -0.000  -0.000   0.025   0.000   0.000  -0.000  -0.000
  0.000   0.006   0.000  -0.000   0.025   0.000   0.000  -0.000
 -0.000  -0.000   0.006  -0.000   0.000   0.025  -0.000  -0.000
 -0.000  -0.000   0.000  -0.000   0.000   0.000   0.423   0.152
  0.000  -0.000  -0.000   0.000   0.000   0.000   0.152   0.055
 total augmentation occupancy for first ion, spin component:           2
  0.000   0.000   0.000   0.000   0.000   0.000   0.000  -0.000
  0.000   0.000   0.000   0.000   0.000   0.000   0.000   0.000
  0.000   0.000   0.000   0.000   0.000   0.000   0.000   0.000
  0.000   0.000   0.000  -0.000   0.000   0.000  -0.000   0.000
  0.000   0.000   0.000   0.000  -0.000   0.000   0.000   0.000
  0.000   0.000   0.000   0.000   0.000  -0.000   0.000   0.000
 -0.000   0.000  -0.000  -0.000  -0.000   0.000   0.000   0.000
 -0.000   0.000  -0.000   0.000   0.000   0.000   0.000   0.000


------------------------ aborting loop because EDIFF is reached ----------------------------------------


 


 total charge     
 
# of ion     s       p       d       tot
----------------------------------------
  1        0.039   5.977   0.000   6.016
  2        0.039   5.977   0.000   6.016
  3        0.039   5.977   0.000   6.016
  4        0.039   5.977   0.000   6.016
  5        1.587   3.589   0.000   5.176
  6        1.587   3.589   0.000   5.176
  7        1.587   3.589   0.000   5.176
  8        1.587   3.589   0.000   5.176
------------------------------------------------
tot        6.504  38.264   0.000  44.769
 


 magnetization (x)
 
# of ion     s       p       d       tot
----------------------------------------
  1       -0.000   0.000   0.000  -0.000
  2        0.000   0.000   0.000   0.000
  3       -0.000   0.000   0.000   0.000
  4        0.000   0.000   0.000   0.000
  5        0.000  -0.000   0.000  -0.000
  6        0.000  -0.000   0.000  -0.000
  7        0.000  -0.000   0.000  -0.000
  8        0.000  -0.000   0.000  -0.000
------------------------------------------------
tot        0.000  -0.000   0.000   0.000
 
    CHARGE:  cpu time    0.1110: real time    0.1108
    FORLOC:  cpu time    0.0080: real time    0.0080
    FORNL :  cpu time    0.6189: real time    0.6185
    STRESS:  cpu time    0.8259: real time    0.8245
    FORCOR:  cpu time    0.1420: real time    0.1419
    FORHAR:  cpu time    0.0140: real time    0.0143
    MIXING:  cpu time    0.0040: real time    0.0042
    OFIELD:  cpu time    0.0000: real time    0.0000

  FORCE on cell =-STRESS in cart. coord.  units (eV):
  Direction    XX          YY          ZZ          XY          YZ          ZX
  --------------------------------------------------------------------------------------
  Alpha Z    85.91048    85.91048    85.91048
  Ewald    -946.72612  -946.72612  -946.72612     0.00000     0.00000     0.00000
  Hartree   383.08594   383.08594   383.08593    -0.00000    -0.00000    -0.00000
  E(xc)    -257.46992  -257.46992  -257.46992     0.00000     0.00000    -0.00000
  Local    -343.00868  -343.00868  -343.00868    -0.00000     0.00000     0.00000
  n-local   257.79985   258.43293   258.58583    -0.28813    -0.26276    -0.10946
  augment   156.49448   156.49448   156.49448    -0.00000    -0.00000    -0.00000
  Kinetic   661.14014   664.75857   666.39254    -0.81200    -0.77836    -0.31672
  Fock        0.00000     0.00000     0.00000     0.00000     0.00000     0.00000
  -------------------------------------------------------------------------------------
  Total       0.65613     0.65613     0.65613     0.00000     0.00000     0.00000
  in kB       5.86267     5.86267     5.86267     0.00000     0.00000     0.00000
  external pressure =        5.86 kB  Pullay stress =        0.00 kB


 VOLUME and BASIS-vectors are now :
 -----------------------------------------------------------------------------
  energy-cutoff  :      300.00
  volume of cell :      179.31
      direct lattice vectors                 reciprocal lattice vectors
     5.639000000  0.000000000  0.000000000     0.177336407  0.000000000  0.000000000
     0.000000000  5.639000000  0.000000000     0.000000000  0.177336407  0.000000000
     0.000000000  0.000000000  5.639000000     0.000000000  0.000000000  0.177336407

  length of vectors
     5.639000000  5.639000000  5.639000000     0.177336407  0.177336407  0.177336407


 FORCES acting on ions
    electron-ion (+dipol)            ewald-force                    non-local-force                 convergence-correction
 -----------------------------------------------------------------------------------------------
   -.150E-13 -.263E-14 -.457E-14   -.234E-14 -.316E-14 -.354E-14   0.662E-23 -.265E-22 0.381E-22   0.381E-14 -.684E-14 -.365E-14
   -.149E-13 0.543E-12 0.534E-12   -.217E-14 0.624E-15 -.101E-14   -.199E-22 -.199E-22 0.397E-22   -.201E-14 0.417E-14 0.170E-13
   0.527E-12 -.544E-15 0.974E-12   0.448E-14 -.300E-14 -.105E-14   0.662E-23 0.132E-22 -.132E-22   0.554E-14 -.134E-13 0.771E-14
   0.534E-12 -.531E-12 -.984E-12   0.464E-14 0.780E-15 -.604E-14   0.662E-23 0.165E-22 -.397E-22   0.391E-14 0.156E-14 -.128E-13
   0.210E-13 0.746E-13 0.428E-12   -.851E-15 0.293E-14 0.565E-14   -.397E-22 -.331E-23 -.662E-23   0.966E-14 0.122E-13 0.168E-13
   0.248E-13 -.171E-13 -.833E-12   -.689E-15 -.804E-15 0.659E-15   -.165E-22 0.298E-22 0.199E-22   0.528E-14 -.502E-14 -.808E-14
   -.993E-14 0.251E-13 -.117E-13   -.155E-14 0.308E-14 0.623E-15   -.265E-22 0.000E+00 -.662E-23   -.370E-14 0.598E-14 -.411E-14
   -.973E-14 -.111E-13 0.281E-13   -.139E-14 -.648E-15 0.315E-14   -.331E-23 -.993E-23 -.993E-23   -.349E-14 -.763E-14 0.141E-13
 -----------------------------------------------------------------------------------------------
   0.106E-11 0.806E-13 0.131E-12   0.138E-15 -.202E-15 -.156E-14   -.860E-22 0.000E+00 0.215E-22   0.190E-13 -.903E-14 0.269E-13
 
 
 POSITION                                       TOTAL-FORCE (eV/Angst)
 -----------------------------------------------------------------------------------
      0.00000      0.00000      0.00000        -0.000000     -0.000000      0.000000
      0.00000      2.81950      2.81950         0.000000     -0.000000      0.000000
      2.81950      0.00000      2.81950        -0.000000      0.000000      0.000000
      2.81950      2.81950      0.00000        -0.000000     -0.000000      0.000000
      2.81950      2.81950      2.81950         0.000000      0.000000     -0.000000
      2.81950      0.00000      0.00000        -0.000000      0.000000      0.000000
      0.00000      2.81950      0.00000         0.000000      0.000000      0.000000
      0.00000      0.00000      2.81950        -0.000000     -0.000000     -0.000000
 -----------------------------------------------------------------------------------
    total drift:                                0.000000      0.000000      0.000000


--------------------------------------------------------------------------------------------------------



  FREE ENERGIE OF THE ION-ELECTRON SYSTEM (eV)
  ---------------------------------------------------
  free  energy   TOTEN  =       -27.09328752 eV

  energy  without entropy=      -27.09328752  energy(sigma->0) =      -27.09328752
 


--------------------------------------------------------------------------------------------------------


    POTLOK:  cpu time    0.1670: real time    0.1671


--------------------------------------------------------------------------------------------------------


 Quasi-Newton relaxation of ions (Broydens 2nd method)
  g(Force)  = 0.326E-60   g(Stress)= 0.265E-33

 Reset! Starting new Quasi-Newton update for ions 


--------------------------------------------------------------------------------------------------------


  
 reached required accuracy - stopping structural energy minimisation
 writing wavefunctions
     LOOP+:  cpu time   33.5359: real time   34.0615
    4ORBIT:  cpu time    0.0000: real time    0.0000
 


 total charge     
 
# of ion     s       p       d       tot
----------------------------------------
  1        0.039   5.977   0.000   6.016
  2        0.039   5.977   0.000   6.016
  3        0.039   5.977   0.000   6.016
  4        0.039   5.977   0.000   6.016
  5        1.587   3.589   0.000   5.176
  6        1.587   3.589   0.000   5.176
  7        1.587   3.589   0.000   5.176
  8        1.587   3.589   0.000   5.176
------------------------------------------------
tot        6.504  38.264   0.000  44.769
 


 magnetization (x)
 
# of ion     s       p       d       tot
----------------------------------------
  1       -0.000   0.000   0.000  -0.000
  2        0.000   0.000   0.000   0.000
  3       -0.000   0.000   0.000   0.000
  4        0.000   0.000   0.000   0.000
  5        0.000  -0.000   0.000  -0.000
  6        0.000  -0.000   0.000  -0.000
  7        0.000  -0.000   0.000  -0.000
  8        0.000  -0.000   0.000  -0.000
------------------------------------------------
tot        0.000  -0.000   0.000   0.000
 

 total amount of memory used by VASP on root node    73815. kBytes
========================================================================

   base      :      30000. kBytes
   nonl-proj :       3063. kBytes
   fftplans  :       3916. kBytes
   grid      :      10266. kBytes
   one-center:         49. kBytes
   wavefun   :      26521. kBytes
 
  
  
 General timing and accounting informations for this job:
 ========================================================
  
                  Total CPU time used (sec):       36.361
                            User time (sec):       35.280
                          System time (sec):        1.082
                         Elapsed time (sec):       38.008
  
                   Maximum memory used (kb):       77860.
                   Average memory used (kb):           0.
  
                          Minor page faults:        22884
                          Major page faults:            0
                 Voluntary context switches:          115
