unknown system                          
   1.00000000000000     
    -2.644500    2.644500    5.211500
     2.644500   -2.644500    5.211500
     2.644500    2.644500   -5.211500
   Cu   Fe   S 
     2     2     4
Direct
  0.000000  0.000000  0.000000
  0.750000  0.250000  0.500000
  0.500000  0.500000  0.000000
  0.250000  0.750000  0.500000
  0.375000  0.382400  0.507400
  0.875000  0.867600  0.492600
  0.617600  0.125000  0.992600
  0.132400  0.625000  0.007400
 
   56   56   56
  5797.5      5416.1      4385.8      3015.1      1697.8      748.59      264.91      112.85      64.866      38.051    
  24.622      18.125      13.817      10.117      7.6821      6.5432      5.6271      4.6451      4.3622      4.8776    
  5.3427      5.5773      6.4514      8.3705      10.754      13.433      17.323      23.147      30.606      39.441    
  50.272      63.428      77.712      91.230      102.85      111.99      117.74      119.42      117.62      113.36    
  106.56      96.850      85.470      74.734      65.763      58.681      55.251      59.856      78.606      119.62    
  266.70      747.92      1696.7      3014.5      4385.7      5416.1      5416.1      4832.3      3713.5      2395.3    
  1244.8      502.31      179.23      91.811      53.379      32.324      22.137      17.016      12.955      9.3917    
  7.3613      6.4970      5.5507      4.6049      4.5790      5.2574      5.7025      6.0962      7.4599      9.9220    
  12.856      16.517      22.071      30.060      40.195      52.656      68.148      86.277      104.91      121.60    
  134.64      142.84      146.34      146.55      144.82      140.72      132.40      119.62      104.65      90.039    
  77.183      67.256      62.902      68.404      89.830      139.73      343.99      918.27      1935.9      3236.3    
  4476.6      5285.2      4385.8      3713.5      2675.3      1589.4      746.85      281.26      119.99      70.607    
  42.389      27.216      19.819      15.632      11.882      8.7215      7.0647      6.3025      5.3979      4.6637    
  4.8386      5.5308      6.0364      6.7899      8.6656      11.620      15.296      20.347      27.950      38.540    
  52.124      69.232      90.150      113.27      135.19      151.55      159.58      160.54      158.70      158.49    
  160.75      161.51      155.47      141.29      122.74      103.90      86.978      74.245      68.774      74.302    
  96.423      151.22      372.08      936.32      1867.3      2979.8      3952.6      4476.7      3015.1      2395.3    
  1589.4      851.62      363.46      149.42      85.375      52.232      33.338      23.100      17.675      14.035    
  10.718      8.1249      6.7451      5.9810      5.2185      4.7837      5.0682      5.7115      6.3986      7.6267    
  9.9913      13.480      18.170      24.950      34.900      48.560      66.334      88.694      114.85      141.32    
  160.82      166.99      160.28      148.12      140.80      144.92      158.17      170.48      171.69      158.93    
  137.43      114.46      93.872      78.707      71.879      76.376      97.006      147.09      334.81      792.93    
  1515.9      2332.1      2980.4      3237.0      1697.8      1244.8      746.85      363.46      163.57      94.297    
  59.218      38.419      26.597      19.834      15.630      12.376      9.5791      7.5429      6.3531      5.5985    
  5.0429      4.8846      5.2237      5.8646      6.8243      8.5362      11.386      15.547      21.482      30.181    
  42.698      59.823      82.148      109.46      139.13      162.76      169.14      154.16      125.26      98.674    
  90.632      107.07      139.10      168.58      180.22      170.38      146.68      120.18      96.849      79.920    
  71.678      74.293      91.522      130.06      253.32      553.35      1017.9      1516.7      1868.7      1937.3    
  748.59      502.31      281.26      149.42      94.297      61.852      41.220      29.010      21.752      17.092    
  13.640      10.784      8.5060      6.9172      5.8976      5.2305      4.8744      4.9014      5.2963      6.0353    
  7.3023      9.4495      12.810      17.775      25.060      35.729      50.929      71.630      98.157      128.99    
  157.40      169.09      152.97      110.71      59.309      23.956      23.913      60.409      115.34      162.48    
  183.17      175.03      149.22      120.26      95.459      77.654      68.263      68.608      81.220      108.97    
  170.39      319.83      553.49      793.78      937.60      919.44      264.91      179.23      119.99      85.375    
  59.219      41.220      29.859      22.794      18.113      14.615      11.717      9.3174      7.5036      6.2574    
  5.4272      4.9025      4.6894      4.8202      5.3060      6.2225      7.7853      10.315      14.208      20.031    
  28.649      41.219      59.001      82.897      112.50      144.13      165.10      158.85      117.64      51.260    
 -13.861     -46.973     -30.651      28.170      102.14      159.88      183.08      173.04      144.84      114.83    
  89.952      72.267      62.289      60.503      68.235      86.879      116.12      168.64      251.44      333.33    
  370.84      342.60      112.86      91.812      70.608      52.232      38.419      29.010      22.794      18.465    
  15.118      12.309      9.9250      8.0111      6.5965      5.6189      4.9686      4.5792      4.4631      4.6769    
  5.2885      6.4022      8.2231      11.098      15.520      22.169      31.999      46.251      66.191      92.401    
  123.51      152.67      163.30      140.01      80.649      2.8057     -61.341     -81.291     -46.204      28.079    
  108.48      163.84      180.41      164.63      134.32      104.80      81.188      64.582      54.722      51.375    
  54.893      65.623      82.560      102.50      122.87      139.85      144.09      132.71      64.866      53.380    
  42.390      33.337      26.596      21.753      18.114      15.118      12.497      10.224      8.3528      6.8943    
  5.8074      5.0327      4.5158      4.2299      4.2052      4.5222      5.2689      6.5519      8.5883      11.776    
  16.679      24.038      34.851      50.379      71.770      99.169      130.28      155.59      158.13      125.97    
  62.655     -9.7055     -59.166     -61.256     -13.869      61.129      131.00      170.50      173.21      150.14    
  119.23      91.661      70.404      55.649      46.566      42.428      42.981      48.017      56.607      66.711    
  75.573      80.621      80.314      74.600      38.051      32.325      27.216      23.098      19.834      17.093    
  14.615      12.307      10.224      8.4609      7.0555      5.9628      5.1186      4.4901      4.0722      3.8787    
  3.9573      4.3854      5.2457      6.6575      8.8721      12.323      17.600      25.464      36.924      53.188    
  75.212      102.76      132.99      155.76      156.33      126.96      74.734      21.344     -7.1383      4.5944    
  51.404      110.72      156.15      171.95      159.10      130.82      101.53      77.103      58.938      46.492    
  38.622      34.404      33.331      34.988      38.630      43.023      46.679      48.286      47.142      43.412    
  24.623      22.137      19.818      17.674      15.632      13.641      11.715      9.9235      8.3534      7.0564    
  6.0160      5.1764      4.5001      3.9898      3.6696      3.5730      3.7507      4.2681      5.2078      6.7158    
  9.0699      12.705      18.203      26.320      38.038      54.459      76.337      103.25      132.42      155.21    
  160.22      143.02      111.00      81.164      70.762      86.479      119.95      153.05      169.15      162.18    
  138.15      109.21      83.224      62.734      47.947      37.882      31.367      27.554      25.909      25.957    
  27.097      28.599      29.732      29.929      28.972      27.050      18.127      17.013      15.630      14.037    
  12.379      10.782      9.3147      8.0119      6.8969      5.9632      5.1754      4.5058      3.9592      3.5606    
  3.3393      3.3323      3.5892      4.1700      5.1643      6.7396      9.1827      12.908      18.470      26.595    
  38.196      54.221      75.266      100.91      128.96      153.37      166.01      164.00      152.48      141.86    
  141.02      151.14      164.79      171.06      162.89      141.27      113.83      87.781      66.133      49.776    
  38.165      30.221      24.989      21.824      20.241      19.744      19.841      20.120      20.277      20.144    
  19.697      19.009      13.817      12.951      11.881      10.722      9.5799      8.5026      7.5028      6.6000    
  5.8091      5.1159      4.4979      3.9597      3.5291      3.2321      3.0950      3.1600      3.4800      4.1110    
  5.1443      6.7567      9.2311      12.956      18.445      26.368      37.516      52.671      72.310      96.125    
  122.53      147.97      166.94      176.74      179.31      179.15      179.47      179.48      175.08      162.32    
  140.94      115.22      90.190      68.552      51.483      38.855      29.862      23.640      19.548      17.100    
  15.827      15.271      15.082      15.056      15.066      15.011      14.815      14.432      10.116      9.3901    
  8.7234      8.1267      7.5410      6.9153      6.2596      5.6214      5.0307      4.4867      3.9904      3.5634    
  3.2329      3.0198      2.9539      3.0827      3.4557      4.1238      5.1801      6.8018      9.2573      12.903    
  18.202      25.739      36.169      50.112      67.941      89.434      113.39      137.57      158.62      173.65    
  182.00      184.43      181.50      172.80      157.72      136.99      113.47      90.265      69.595      52.695    
  39.690      30.028      23.038      18.207      15.116      13.310      12.329      11.827      11.615      11.587    
  11.622      11.571      11.309      10.799      7.6794      7.3637      7.0677      6.7430      6.3499      5.8993    
  5.4304      4.9671      4.5120      4.0731      3.6741      3.3410      3.0927      2.9523      2.9557      3.1434    
  3.5537      4.2398      5.3034      6.9143      9.3136      12.819      17.841      24.871      34.435      46.998    
  62.800      81.601      102.40      123.38      142.22      156.53      164.50      165.37      159.12      146.43    
  128.89      108.71      88.155      69.212      53.160      40.368      30.510      23.064      17.655      14.005    
  11.739      10.385      9.5608      9.0763      8.8431      8.7574      8.6933      8.5600      8.3274      8.0163    
  6.5414      6.5014      6.3040      5.9768      5.5968      5.2343      4.9041      4.5755      4.2282      3.8830    
  3.5762      3.3291      3.1558      3.0827      3.1450      3.3728      3.8011      4.4941      5.5580      7.1440    
  9.4629      12.803      17.526      24.032      32.711      43.867      57.588      73.552      90.853      107.97    
  122.94      133.76      138.85      137.47      129.88      117.26      101.37      84.227      67.653      52.971    
  40.786      31.065      23.480      17.748      13.679      11.007      9.3143      8.1959      7.4316      6.9565    
  6.7042      6.5569      6.4364      6.3612      6.3779      6.4680      5.6276      5.5531      5.3970      5.2160    
  5.0439      4.8769      4.6886      4.4610      4.2066      3.9596      3.7483      3.5846      3.4800      3.4599    
  3.5559      3.8003      4.2383      4.9404      6.0026      7.5560      9.7956      12.992      17.459      23.496    
  31.355      41.190      52.963      66.294      80.343      93.803      105.05      112.47      114.89      111.97    
  104.20      92.796      79.323      65.415      52.412      41.108      31.725      24.158      18.264      13.930    
  10.952      8.9691      7.5945      6.5931      5.9002      5.4921      5.2927      5.2097      5.2066      5.2915    
  5.4430      5.5826      4.6469      4.6039      4.6617      4.7848      4.8868      4.9006      4.8181      4.6776    
  4.5242      4.3839      4.2643      4.1701      4.1156      4.1269      4.2381      4.4914      4.9399      5.6495    
  6.7057      8.2358      10.431      13.538      17.806      23.450      30.625      39.400      49.661      60.987    
  72.563      83.211      91.566      96.383      96.888      93.011      85.378      75.121      63.606      52.138    
  41.671      32.662      25.184      19.186      14.625      11.374      9.1343      7.5364      6.3357      5.4638    
  4.9088      4.6126      4.4940      4.5040      4.6069      4.7315      4.7876      4.7405      4.3636      4.5764    
  4.8376      5.0709      5.2250      5.2938      5.3043      5.2901      5.2699      5.2440      5.2078      5.1681    
  5.1466      5.1769      5.2989      5.5575      6.0048      6.7067      7.7576      9.2946      11.498      14.572    
  18.715      24.115      30.925      39.205      48.786      59.145      69.379      78.329      84.808      87.856    
  86.961      82.204      74.272      64.314      53.654      43.441      34.395      26.783      20.606      15.796    
  12.236      9.6935      7.8509      6.4578      5.4221      4.7327      4.3359      4.1285      4.0368      4.0373    
  4.1006      4.1675      4.2041      4.2469      4.8780      5.2561      5.5310      5.7129      5.8642      6.0336    
  6.2224      6.4035      6.5523      6.6576      6.7175      6.7410      6.7544      6.7976      6.9137      7.1474    
  7.5586      8.2353      9.2936      10.871      13.128      16.247      20.452      26.003      33.147      41.973    
  52.188      62.995      73.211      81.573      87.013      88.781      86.494      80.278      70.929      59.837    
  48.569      38.344      29.758      22.891      17.584      13.604      10.680      8.5173      6.8832      5.6644    
  4.8247      4.3106      4.0207      3.8551      3.7630      3.7335      3.7699      3.8880      4.1174      4.4656    
  5.3426      5.7030      6.0370      6.3980      6.8233      7.3025      7.7865      8.2240      8.5883      8.8718    
  9.0689      9.1806      9.2297      9.2591      9.3175      9.4648      9.7937      10.429      11.498      13.128    
  15.488      18.836      23.550      30.103      38.923      50.065      62.849      75.819      87.553      97.767    
  104.34      104.96      99.043      88.315      75.356      61.198      47.614      36.111      27.163      20.528    
  15.711      12.214      9.6254      7.6633      6.1937      5.1604      4.4927      4.0849      3.8413      3.7082    
  3.6646      3.7092      3.8578      4.1276      4.5048      4.9325      5.5772      6.0970      6.7899      7.6256    
  8.5357      9.4505      10.316      11.098      11.775      12.321      12.704      12.908      12.958      12.907    
  12.821      12.801      12.989      13.537      14.574      16.249      18.836      22.816      28.915      38.017    
  50.773      66.870      85.651      111.89      143.12      169.67      183.01      178.40      156.03      123.00    
  91.024      67.687      50.018      36.072      26.066      19.231      14.588      11.331      8.9262      7.1108    
  5.7946      4.9081      4.3368      3.9718      3.7587      3.6781      3.7174      3.8734      4.1424      4.4873    
  4.8442      5.1890      6.4513      7.4600      8.6654      9.9909      11.387      12.811      14.208      15.519    
  16.678      17.600      18.205      18.472      18.446      18.200      17.838      17.524      17.460      17.809    
  18.717      20.452      23.549      28.914      37.884      51.939      71.682      103.22      162.36      242.29    
  319.99      374.35      392.40      367.33      301.90      214.59      134.21      81.464      54.510      37.372    
  25.881      18.581      13.932      10.802      8.5328      6.8441      5.6424      4.8327      4.2941      3.9519    
  3.7831      3.7604      3.8496      4.0438      4.3431      4.7175      5.1482      5.6930      8.3703      9.9217    
  11.620      13.481      15.547      17.775      20.030      22.168      24.038      25.466      26.322      26.596    
  26.365      25.735      24.870      24.034      23.500      23.452      24.114      26.001      30.102      38.017    
  51.939      73.840      118.53      218.93      372.24      540.53      680.70      763.82      772.37      697.09    
  548.69      367.51      208.05      106.19      59.785      39.018      26.066      18.294      13.600      10.553    
  8.3838      6.7872      5.6535      4.8763      4.3517      4.0384      3.9185      3.9401      4.0576      4.2862    
  4.6677      5.2255      5.9944      7.0371      10.754      12.856      15.297      18.171      21.482      25.060    
  28.649      32.000      34.852      36.925      38.037      38.194      37.515      36.171      34.438      32.713    
  31.354      30.623      30.923      33.147      38.924      50.774      71.681      118.53      244.22      467.44    
  748.61      1019.6      1222.7      1321.5      1291.7      1125.4      852.71      547.28      292.49      134.74    
  65.318      40.232      26.262      18.212      13.510      10.513      8.4003      6.8586      5.7633      5.0047    
  4.5001      4.2218      4.1428      4.2093      4.4052      4.7854      5.4101      6.2986      7.4680      8.9518    
  13.434      16.517      20.348      24.950      30.180      35.729      41.220      46.252      50.379      53.187    
  54.456      54.220      52.673      50.116      47.000      43.865      41.187      39.397      39.205      41.975    
  50.067      66.870      103.22      218.93      467.44      835.07      1246.9      1612.4      1861.3      1947.1    
  1840.6      1547.0      1129.2      697.79      357.63      155.07      68.803      40.681      26.304      18.223    
  13.568      10.604      8.5213      7.0093      5.9305      5.1819      4.7008      4.4598      4.4233      4.5594    
  4.8957      5.5009      6.4048      7.5937      9.0917      10.997      17.323      22.071      27.950      34.900    
  42.698      50.929      59.001      66.191      71.770      75.212      76.338      75.268      72.310      67.939    
  62.797      57.586      52.964      49.663      48.788      52.188      62.848      85.649      162.36      372.24    
  748.61      1246.9      1766.3      2198.1      2458.4      2492.0      2277.1      1846.4      1299.9      775.18    
  382.97      159.39      68.479      40.327      26.115      18.224      13.673      10.753      8.6909      7.1884    
  6.1092      5.3665      4.9108      4.7110      4.7329      4.9672      5.4571      6.2571      7.3903      8.8958    
  10.909      13.648      23.147      30.060      38.540      48.560      59.824      71.630      82.897      92.400    
  99.168      102.77      103.25      100.91      96.123      89.430      81.599      73.553      66.297      60.990    
  59.145      62.993      75.817      111.89      242.29      540.53      1019.6      1612.4      2198.1      2651.2    
  2877.1      2824.8      2495.5      1955.3      1330.5      766.29      364.67      147.10      64.659      39.155    
  25.617      18.121      13.745      10.886      8.8351      7.3269      6.2508      5.5296      5.1090      4.9577    
  5.0570      5.4125      6.0654      7.0804      8.5512      10.644      13.609      17.709      30.606      40.195    
  52.124      66.334      82.149      98.157      112.50      123.51      130.28      132.99      132.42      128.96    
  122.53      113.40      102.40      90.854      80.342      72.562      69.378      73.211      87.553      143.12    
  319.99      680.70      1222.7      1861.3      2458.4      2877.1      3026.6      2877.6      2461.4      1867.6    
  1228.8      680.77      310.00      123.00      59.158      37.104      24.738      17.841      13.711      10.927    
  8.8830      7.3781      6.3308      5.6559      5.2855      5.1968      5.3943      5.9007      6.7786      8.1501    
  10.203      13.189      17.395      23.107      39.441      52.656      69.232      88.694      109.46      128.99    
  144.13      152.67      155.59      155.76      155.20      153.37      147.98      137.57      123.39      107.97    
  93.799      83.209      78.329      81.574      97.767      169.67      374.35      763.82      1321.5      1947.1    
  2492.0      2824.8      2877.6      2651.2      2199.0      1615.1      1021.8      538.36      233.07      95.575    
  53.295      34.218      23.467      17.335      13.502      10.810      8.8013      7.3408      6.3500      5.7323    
  5.4262      5.4251      5.7478      6.4432      7.6261      9.4824      12.251      16.224      21.765      29.324    
  50.272      68.149      90.150      114.85      139.13      157.40      165.10      163.30      158.13      156.33    
  160.23      166.01      166.94      158.62      142.21      122.94      105.05      91.568      84.809      87.012    
  104.34      183.01      392.40      772.37      1291.8      1840.6      2277.1      2495.5      2461.4      2199.0    
  1766.3      1247.4      748.66      369.58      155.29      73.889      46.402      30.760      21.873      16.582    
  13.073      10.505      8.5902      7.2247      6.3066      5.7475      5.5217      5.6360      6.1103      7.0259    
  8.5561      10.933      14.440      19.477      26.625      36.626      63.428      86.278      113.27      141.32    
  162.76      169.09      158.85      140.01      125.97      126.97      143.03      164.00      176.73      173.64    
  156.52      133.76      112.47      96.385      87.855      88.778      104.96      178.40      367.34      697.09    
  1125.4      1547.0      1846.4      1955.3      1867.6      1615.1      1247.4      835.08      467.21      217.26    
  98.962      59.464      39.112      27.122      20.071      15.596      12.421      10.024      8.2569      7.0192    
  6.1874      5.7013      5.5746      5.8207      6.4627      7.6210      9.5260      12.472      16.851      23.259    
  32.531      45.631      77.713      104.91      135.19      160.82      169.14      152.97      117.64      80.650    
  62.656      74.733      111.00      152.48      179.31      182.00      164.51      138.85      114.89      96.885    
  86.959      86.494      99.045      156.04      301.90      548.69      852.71      1129.2      1299.9      1330.5    
  1228.8      1021.8      748.66      467.21      244.22      118.06      69.817      46.817      32.379      23.645    
  18.171      14.412      11.579      9.4010      7.8126      6.7146      5.9876      5.6006      5.5871      5.9674    
  6.7889      8.2201      10.556      14.187      19.657      27.746      39.454      55.842      91.230      121.60    
  151.55      166.99      154.17      110.71      51.261      2.8064     -9.7068      21.340      81.160      141.86    
  179.16      184.44      165.37      137.46      111.96      93.008      82.205      80.281      88.317      123.00    
  214.59      367.51      547.28      697.79      775.18      766.29      680.77      538.36      369.58      217.26    
  118.06      73.839      51.497      36.385      26.731      20.505      16.245      13.081      10.596      8.6748    
  7.2821      6.3274      5.7196      5.4479      5.5503      6.0654      7.0833      8.8234      11.642      16.025    
  22.633      32.377      46.387      65.806      102.85      134.64      159.58      160.28      125.26      59.310    
 -13.862     -61.344     -59.168     -7.1370      70.767      141.03      179.47      181.49      159.11      129.88    
  104.21      85.381      74.274      70.929      75.356      91.024      134.21      208.05      292.49      357.62    
  382.97      364.67      310.00      233.07      155.30      98.963      69.818      51.497      37.882      28.542    
  22.198      17.707      14.330      11.663      9.5308      7.8882      6.6980      5.8868      5.3992      5.2413    
  5.4580      6.1140      7.3414      9.4006      12.693      17.765      25.369      36.546      52.587      74.652    
  111.99      142.84      160.54      148.12      98.675      23.956     -46.975     -81.295     -61.254      4.6044    
  86.488      151.14      179.47      172.79      146.43      117.27      92.806      75.123      64.311      59.834    
  61.196      67.686      81.463      106.19      134.74      155.07      159.39      147.10      123.00      95.576    
  73.890      59.465      46.818      36.385      28.541      22.819      18.538      15.184      12.464      10.240    
  8.4551      7.0833      6.0856      5.4117      5.0374      4.9878      5.3208      6.1219      7.5503      9.8969    
  13.602      19.271      27.762      40.253      58.100      82.230      117.74      146.34      158.70      140.80    
  90.633      23.912     -30.653     -46.203     -13.861      51.411      119.94      164.77      175.07      157.73    
  128.91      101.38      79.318      63.595      53.650      48.572      47.616      50.016      54.509      59.787    
  65.319      68.802      68.478      64.660      59.160      53.295      46.402      39.113      32.380      26.730    
  22.197      18.538      15.489      12.898      10.708      8.8926      7.4280      6.2934      5.4653      4.9184    
  4.6519      4.7087      5.1586      6.0955      7.6952      10.280      14.336      20.539      29.835      43.451    
  62.610      87.816      119.42      146.54      158.49      144.93      107.07      60.405      28.171      28.089    
  61.135      110.71      153.03      171.05      162.34      137.02      108.73      84.212      65.386      52.124    
  43.448      38.356      36.114      36.069      37.372      39.020      40.233      40.679      40.327      39.157    
  37.104      34.217      30.760      27.123      23.645      20.503      17.706      15.185      12.898      10.868    
  9.1280      7.6719      6.4785      5.5424      4.8636      4.4354      4.2720      4.4297      4.9841      6.0330    
  7.7692      10.547      14.888      21.493      31.306      45.479      65.042      90.209      117.62      144.82    
  160.76      158.17      139.09      115.33      102.14      108.49      130.99      156.12      169.14      162.92    
  140.98      113.49      88.128      67.610      52.394      41.686      34.417      29.766      27.159      26.063    
  25.882      26.067      26.261      26.304      26.117      25.618      24.737      23.467      21.874      20.071    
  18.169      16.244      14.332      12.466      10.707      9.1270      7.7582      6.5910      5.6182      4.8540    
  4.3107      3.9917      3.9235      4.1685      4.8032      5.9342      7.7741      10.692      15.199      21.956    
  31.826      45.859      64.980      89.367      113.36      140.72      161.51      170.48      168.58      162.48    
  159.89      163.84      170.48      171.94      162.20      141.32      115.24      90.225      69.144      52.944    
  41.140      32.709      26.799      22.878      20.516      19.233      18.584      18.291      18.209      18.226    
  18.226      18.118      17.839      17.337      16.584      15.594      14.410      13.083      11.666      10.239    
  8.8900      7.6716      6.5920      5.6507      4.8640      4.2528      3.8275      3.6030      3.6196      3.9369    
  4.6280      5.8145      7.7212      10.698      15.213      21.877      31.496      45.020      63.279      86.442    
  106.56      132.40      155.47      171.68      180.22      183.18      183.08      180.40      173.20      159.12    
  138.19      113.86      90.149      69.520      53.122      40.821      31.793      25.218      20.590      17.555    
  15.703      14.596      13.933      13.593      13.508      13.573      13.674      13.740      13.710      13.506    
  13.073      12.417      11.579      10.599      9.5318      8.4517      7.4264      6.4812      5.6204      4.8635    
  4.2379      3.7557      3.4261      3.2822      3.3744      3.7514      4.4826      5.7037      7.6352      10.584    
  14.979      21.415      30.654      43.502      60.569      81.901      96.852      119.62      141.28      158.93    
  170.39      175.04      173.03      164.61      150.15      130.86      109.23      87.739      68.476      52.662    
  40.415      31.145      24.196      19.161      15.752      13.587      12.223      11.340      10.799      10.549    
  10.515      10.607      10.751      10.884      10.929      10.812      10.504      10.023      9.4030      8.6767    
  7.8861      7.0808      6.2953      5.5457      4.8534      4.2500      3.7549      3.3730      3.1246      3.0563    
  3.2143      3.6372      4.3975      5.6349      7.5491      10.409      14.613      20.718      29.370      41.161    
  56.475      75.278      85.473      104.65      122.73      137.42      146.68      149.22      144.83      134.32    
  119.25      101.54      83.196      66.065      51.444      39.737      30.605      23.530      18.229      14.557    
  12.206      10.694      9.6439      8.9260      8.5272      8.3864      8.4045      8.5189      8.6878      8.8376    
  8.8860      8.7992      8.5873      8.2590      7.8157      7.2804      6.6947      6.0870      5.4691      4.8628    
  4.3061      3.8258      3.4283      3.1262      2.9559      2.9596      3.1687      3.6228      4.4028      5.6353    
  7.4929      10.225      14.193      19.845      27.642      37.992      51.181      67.202      74.736      90.036    
  103.90      114.46      120.18      120.26      114.82      104.81      91.671      77.087      62.689      49.747    
  38.889      30.108      23.115      17.719      13.856      11.330      9.7087      8.5511      7.6719      7.0989    