unknown system                          
   1.00000000000000     
    -2.644500    2.644500    5.211500
     2.644500   -2.644500    5.211500
     2.644500    2.644500   -5.211500
   Cu   Fe   S 
     2     2     4
Direct
  0.000000  0.000000  0.000000
  0.750000  0.250000  0.500000
  0.500000  0.500000  0.000000
  0.250000  0.750000  0.500000
  0.375000  0.382400  0.507400
  0.875000  0.867600  0.492600
  0.617600  0.125000  0.992600
  0.132400  0.625000  0.007400
 
   56   56   56
 0.57975190141E+04 0.54160671936E+04 0.43858460498E+04 0.30150824127E+04 0.16977571365E+04
 0.74858898690E+03 0.26491414163E+03 0.11285469477E+03 0.64866257229E+02 0.38051139516E+02
 0.24622300261E+02 0.18124962694E+02 0.13816683604E+02 0.10117227256E+02 0.76820650540E+01
 0.65431500529E+01 0.56270959002E+01 0.46451160870E+01 0.43621973649E+01 0.48775829214E+01
 0.53427095241E+01 0.55772890787E+01 0.64513911888E+01 0.83705467567E+01 0.10754102530E+02
 0.13433411610E+02 0.17322592159E+02 0.23146870715E+02 0.30605671012E+02 0.39441367482E+02
 0.50271608201E+02 0.63427842240E+02 0.77712470081E+02 0.91229744317E+02 0.10284882825E+03
 0.11199113692E+03 0.11773878049E+03 0.11941524203E+03 0.11762427102E+03 0.11336092857E+03
 0.10655961874E+03 0.96850019536E+02 0.85470261874E+02 0.74734296176E+02 0.65763480134E+02
 0.58680789784E+02 0.55251121551E+02 0.59856116524E+02 0.78605506122E+02 0.11962273035E+03
 0.26670440149E+03 0.74791822410E+03 0.16966751369E+04 0.30145019655E+04 0.43857376171E+04
 0.54161096946E+04 0.54160668208E+04 0.48323322558E+04 0.37134550098E+04 0.23952717193E+04
 0.12448272905E+04 0.50231006785E+03 0.17922568825E+03 0.91811058330E+02 0.53379253008E+02
 0.32323654738E+02 0.22137019157E+02 0.17015602977E+02 0.12954914250E+02 0.93917001569E+01
 0.73612565497E+01 0.64970421056E+01 0.55506797599E+01 0.46049224492E+01 0.45790069016E+01
 0.52573834119E+01 0.57024969259E+01 0.60962493463E+01 0.74598930651E+01 0.99220290113E+01
 0.12855557060E+02 0.16516807722E+02 0.22071139945E+02 0.30060262339E+02 0.40195489226E+02
 0.52655901052E+02 0.68148419594E+02 0.86277348221E+02 0.10491440222E+03 0.12159878146E+03
 0.13463869403E+03 0.14284244024E+03 0.14634137919E+03 0.14654615250E+03 0.14482163239E+03
 0.14071666011E+03 0.13240105967E+03 0.11961637527E+03 0.10465116569E+03 0.90038602373E+02
 0.77182981486E+02 0.67255842729E+02 0.62901678712E+02 0.68404418309E+02 0.89829752294E+02
 0.13973439529E+03 0.34399205455E+03 0.91826968330E+03 0.19359140847E+04 0.32362961268E+04
 0.44765911641E+04 0.52852347079E+04 0.43858444758E+04 0.37134540934E+04 0.26753161960E+04
 0.15894157904E+04 0.74684838140E+03 0.28125775122E+03 0.11998696709E+03 0.70607399816E+02
 0.42389290263E+02 0.27216337321E+02 0.19819306551E+02 0.15631713630E+02 0.11881773092E+02
 0.87215057221E+01 0.70647406657E+01 0.63025084519E+01 0.53979028272E+01 0.46636774598E+01
 0.48386350246E+01 0.55308179359E+01 0.60364428533E+01 0.67898826467E+01 0.86656316032E+01
 0.11619627227E+02 0.15296328163E+02 0.20347469585E+02 0.27949623359E+02 0.38539839236E+02
 0.52124318633E+02 0.69231583087E+02 0.90149540883E+02 0.11327311808E+03 0.13519450562E+03
 0.15154753171E+03 0.15957613730E+03 0.16053679487E+03 0.15870137957E+03 0.15848886020E+03
 0.16075396651E+03 0.16151129338E+03 0.15547095533E+03 0.14128618432E+03 0.12273664774E+03
 0.10390218613E+03 0.86978386345E+02 0.74245035989E+02 0.68773636480E+02 0.74301777063E+02
 0.96422653403E+02 0.15122109517E+03 0.37207852411E+03 0.93631967851E+03 0.18672920589E+04
 0.29797734436E+04 0.39526131661E+04 0.44767489054E+04 0.30150799164E+04 0.23952703838E+04
 0.15894154982E+04 0.85161816008E+03 0.36345868532E+03 0.14941596804E+03 0.85374507611E+02
 0.52231814823E+02 0.33338045569E+02 0.23099599447E+02 0.17674940672E+02 0.14035013557E+02
 0.10718131951E+02 0.81249363334E+01 0.67451098115E+01 0.59810350807E+01 0.52184606762E+01
 0.47836641838E+01 0.50682198728E+01 0.57115249857E+01 0.63985747023E+01 0.76267414466E+01
 0.99913196412E+01 0.13480235562E+02 0.18170177986E+02 0.24950209443E+02 0.34900185610E+02
 0.48559911178E+02 0.66333967404E+02 0.88693826271E+02 0.11484887382E+03 0.14131873021E+03
 0.16082259752E+03 0.16699284730E+03 0.16028219534E+03 0.14811572530E+03 0.14080145716E+03
 0.14492273484E+03 0.15817019637E+03 0.17048339637E+03 0.17168552743E+03 0.15893186067E+03
 0.13742621930E+03 0.11445824126E+03 0.93872256819E+02 0.78706841148E+02 0.71878553523E+02
 0.76376152679E+02 0.97006209542E+02 0.14709120431E+03 0.33480637083E+03 0.79293351894E+03
 0.15158968147E+04 0.23320586441E+04 0.29803502283E+04 0.32370083834E+04 0.16977549852E+04
 0.12448264422E+04 0.74684836458E+03 0.36345884266E+03 0.16356519978E+03 0.94296858444E+02
 0.59218484880E+02 0.38419075903E+02 0.26596623751E+02 0.19833733469E+02 0.15630201912E+02
 0.12376462103E+02 0.95791393597E+01 0.75429170521E+01 0.63531107390E+01 0.55984730594E+01
 0.50429078711E+01 0.48845882786E+01 0.52237244717E+01 0.58645979954E+01 0.68242620074E+01
 0.85361683857E+01 0.11386490108E+02 0.15547101111E+02 0.21481511566E+02 0.30180561883E+02
 0.42698116117E+02 0.59823333107E+02 0.82148429205E+02 0.10946257443E+03 0.13912808022E+03
 0.16275937272E+03 0.16913708022E+03 0.15416452193E+03 0.12525894391E+03 0.98674206214E+02
 0.90632353581E+02 0.10706789513E+03 0.13909524954E+03 0.16858494532E+03 0.18021847061E+03
 0.17038468331E+03 0.14667932113E+03 0.12017764641E+03 0.96849206196E+02 0.79919656385E+02
 0.71677519300E+02 0.74292894754E+02 0.91522482555E+02 0.13006071510E+03 0.25332141920E+03
 0.55335372729E+03 0.10178568468E+04 0.15167112193E+04 0.18686530244E+04 0.19373195027E+04
 0.74858819254E+03 0.50231001860E+03 0.28125805998E+03 0.14941635408E+03 0.94297050063E+02
 0.61852048850E+02 0.41220223664E+02 0.29009768138E+02 0.21751844159E+02 0.17091808453E+02
 0.13639948075E+02 0.10783912043E+02 0.85059883471E+01 0.69172012194E+01 0.58976043510E+01
 0.52304710065E+01 0.48744094715E+01 0.49013828061E+01 0.52963223115E+01 0.60352967540E+01
 0.73023489327E+01 0.94494550919E+01 0.12810006942E+02 0.17774832744E+02 0.25060316856E+02
 0.35729197928E+02 0.50928572464E+02 0.71629950693E+02 0.98157288838E+02 0.12898860614E+03
 0.15740005275E+03 0.16909311166E+03 0.15297415830E+03 0.11070519507E+03 0.59308887179E+02
 0.23955725717E+02 0.23913392346E+02 0.60409162219E+02 0.11533772774E+03 0.16248293549E+03
 0.18316972856E+03 0.17502930884E+03 0.14921994685E+03 0.12026337664E+03 0.95458761319E+02
 0.77653571899E+02 0.68263218149E+02 0.68607828807E+02 0.81219713545E+02 0.10897301642E+03
 0.17038561914E+03 0.31983021302E+03 0.55348797907E+03 0.79377866086E+03 0.93759578644E+03
 0.91944311270E+03 0.26491446967E+03 0.17922607297E+03 0.11998750945E+03 0.85375063682E+02
 0.59218662564E+02 0.41220156080E+02 0.29859328610E+02 0.22793643606E+02 0.18113484563E+02
 0.14614782734E+02 0.11716810875E+02 0.93173669548E+01 0.75036431538E+01 0.62574428603E+01
 0.54271646673E+01 0.49025165095E+01 0.46894383164E+01 0.48202481136E+01 0.53059722624E+01
 0.62225344558E+01 0.77852907384E+01 0.10314676575E+02 0.14207684240E+02 0.20031067940E+02
 0.28649034586E+02 0.41219450603E+02 0.59000531737E+02 0.82896865689E+02 0.11250022497E+03
 0.14412613931E+03 0.16510421998E+03 0.15884621718E+03 0.11764370456E+03 0.51259894870E+02
 -.13861422406E+02 -.46972700512E+02 -.30650807611E+02 0.28169557930E+02 0.10213776419E+03
 0.15988040245E+03 0.18307583050E+03 0.17303714393E+03 0.14483567423E+03 0.11482725210E+03
 0.89952008681E+02 0.72267124604E+02 0.62288512207E+02 0.60503307262E+02 0.68234899864E+02
 0.86879123646E+02 0.11611677282E+03 0.16864189727E+03 0.25144247922E+03 0.33333269907E+03
 0.37083940986E+03 0.34259630633E+03 0.11285507695E+03 0.91811682496E+02 0.70608185988E+02
 0.52232115026E+02 0.38418900675E+02 0.29009811616E+02 0.22793937069E+02 0.18465018223E+02
 0.15118123865E+02 0.12308630326E+02 0.99250306311E+01 0.80110561858E+01 0.65965280541E+01
 0.56189186528E+01 0.49685641093E+01 0.45792472721E+01 0.44631009164E+01 0.46768700512E+01
 0.52884592449E+01 0.64021518036E+01 0.82231453006E+01 0.11097696751E+02 0.15519804642E+02
 0.22169305205E+02 0.31999442657E+02 0.46250587757E+02 0.66190906267E+02 0.92400959389E+02
 0.12351209713E+03 0.15266821646E+03 0.16330344218E+03 0.14000678495E+03 0.80648841200E+02
 0.28057434868E+01 -.61341239253E+02 -.81290935963E+02 -.46204326686E+02 0.28079413616E+02
 0.10848265974E+03 0.16384357969E+03 0.18041326885E+03 0.16462750168E+03 0.13431950329E+03
 0.10480081121E+03 0.81188369095E+02 0.64582470834E+02 0.54721924192E+02 0.51375426516E+02
 0.54893208699E+02 0.65623330316E+02 0.82560044158E+02 0.10250390487E+03 0.12287349618E+03
 0.13985033858E+03 0.14408597355E+03 0.13271361717E+03 0.64866142177E+02 0.53380378900E+02
 0.42390004066E+02 0.33337375268E+02 0.26596181379E+02 0.21752709988E+02 0.18114318478E+02
 0.15117969741E+02 0.12496856319E+02 0.10224337420E+02 0.83527594237E+01 0.68943109401E+01
 0.58074278389E+01 0.50326560053E+01 0.45157698431E+01 0.42298547046E+01 0.42052034995E+01
 0.45222246768E+01 0.52689450268E+01 0.65518773086E+01 0.85883144011E+01 0.11775792551E+02
 0.16679437463E+02 0.24037878188E+02 0.34851018386E+02 0.50378526529E+02 0.71770304553E+02
 0.99169105422E+02 0.13028101814E+03 0.15558609364E+03 0.15812529631E+03 0.12596916415E+03
 0.62655420473E+02 -.97054984247E+01 -.59165786552E+02 -.61256007591E+02 -.13868973350E+02
 0.61128619319E+02 0.13099632412E+03 0.17049648450E+03 0.17320662645E+03 0.15013773061E+03
 0.11923319586E+03 0.91660641409E+02 0.70403876175E+02 0.55649377938E+02 0.46565570487E+02
 0.42428183324E+02 0.42980654165E+02 0.48016619268E+02 0.56606829944E+02 0.66710892718E+02
 0.75573017236E+02 0.80621064640E+02 0.80314315913E+02 0.74599768895E+02 0.38051160964E+02
 0.32324995471E+02 0.27216121517E+02 0.23098126070E+02 0.19833918632E+02 0.17093447545E+02
 0.14615009362E+02 0.12307321031E+02 0.10223749766E+02 0.84609481317E+01 0.70554567712E+01
 0.59627918349E+01 0.51185774770E+01 0.44900970548E+01 0.40722414070E+01 0.38787121875E+01
 0.39573048061E+01 0.43854447439E+01 0.52456519887E+01 0.66575344945E+01 0.88720998441E+01
 0.12322681494E+02 0.17600165794E+02 0.25464303535E+02 0.36924460697E+02 0.53188217943E+02
 0.75212452633E+02 0.10276402113E+03 0.13298875500E+03 0.15575931121E+03 0.15632941505E+03
 0.12696448550E+03 0.74733799910E+02 0.21344119413E+02 -.71382887668E+01 0.45944160324E+01
 0.51404452123E+02 0.11071972925E+03 0.15614914039E+03 0.17195354993E+03 0.15910173888E+03
 0.13081998734E+03 0.10152523621E+03 0.77102955360E+02 0.58938214197E+02 0.46492388405E+02
 0.38621916305E+02 0.34404491347E+02 0.33330732169E+02 0.34988316318E+02 0.38629655873E+02
 0.43022600332E+02 0.46678860246E+02 0.48286352770E+02 0.47141721277E+02 0.43412263748E+02
 0.24623351177E+02 0.22137076080E+02 0.19817653778E+02 0.17674417334E+02 0.15631821910E+02
 0.13640711120E+02 0.11715091397E+02 0.99234983754E+01 0.83534224921E+01 0.70564376581E+01
 0.60160173767E+01 0.51763808541E+01 0.45001214726E+01 0.39898483659E+01 0.36695611494E+01
 0.35730309240E+01 0.37506723273E+01 0.42680643416E+01 0.52078426095E+01 0.67157828208E+01
 0.90699176301E+01 0.12705404522E+02 0.18203221012E+02 0.26319989763E+02 0.38038482407E+02
 0.54458544981E+02 0.76336980075E+02 0.10324509056E+03 0.13242103716E+03 0.15520722645E+03
 0.16022391862E+03 0.14302192750E+03 0.11100044114E+03 0.81164418472E+02 0.70762494949E+02
 0.86479191036E+02 0.11994561392E+03 0.15305238417E+03 0.16915063642E+03 0.16217628636E+03
 0.13814790168E+03 0.10920830782E+03 0.83223697977E+02 0.62733900231E+02 0.47947121793E+02
 0.37881953180E+02 0.31367447493E+02 0.27554268006E+02 0.25908972053E+02 0.25957239354E+02
 0.27096899690E+02 0.28599232163E+02 0.29731514982E+02 0.29929486559E+02 0.28972205799E+02
 0.27050281046E+02 0.18126702267E+02 0.17013146373E+02 0.15629593998E+02 0.14037090147E+02
 0.12378747918E+02 0.10782159203E+02 0.93146637819E+01 0.80118904242E+01 0.68968925484E+01
 0.59631900489E+01 0.51753812115E+01 0.45057885743E+01 0.39591952702E+01 0.35606329144E+01
 0.33393093335E+01 0.33322845323E+01 0.35891645208E+01 0.41699990179E+01 0.51642618479E+01
 0.67396110426E+01 0.91826771318E+01 0.12908312792E+02 0.18469760059E+02 0.26595493587E+02
 0.38195936825E+02 0.54221439679E+02 0.75266142518E+02 0.10090655128E+03 0.12895830835E+03
 0.15337255571E+03 0.16600882632E+03 0.16400165448E+03 0.15248417092E+03 0.14186249408E+03
 0.14102337092E+03 0.15114326730E+03 0.16478929621E+03 0.17106179320E+03 0.16289193804E+03
 0.14126777684E+03 0.11383394560E+03 0.87780621859E+02 0.66133397900E+02 0.49775521251E+02
 0.38165003033E+02 0.30221041607E+02 0.24988542110E+02 0.21824387418E+02 0.20240520456E+02
 0.19743566170E+02 0.19841336286E+02 0.20119570275E+02 0.20277366999E+02 0.20144294616E+02
 0.19697296939E+02 0.19009149160E+02 0.13817450268E+02 0.12951221273E+02 0.11881189241E+02
 0.10721779061E+02 0.95799335677E+01 0.85025840471E+01 0.75027528041E+01 0.65999752016E+01
 0.58090567788E+01 0.51158928592E+01 0.44979121926E+01 0.39597188841E+01 0.35290955679E+01
 0.32321231515E+01 0.30949938312E+01 0.31600471463E+01 0.34800214615E+01 0.41109914659E+01
 0.51442914342E+01 0.67567436264E+01 0.92310679183E+01 0.12955688877E+02 0.18445238987E+02
 0.26367844960E+02 0.37516139593E+02 0.52671012971E+02 0.72309577302E+02 0.96125130312E+02
 0.12252586999E+03 0.14797347816E+03 0.16693771378E+03 0.17673933375E+03 0.17930927048E+03
 0.17915192199E+03 0.17947076223E+03 0.17948400638E+03 0.17508459143E+03 0.16231997640E+03
 0.14093781104E+03 0.11522181805E+03 0.90190085306E+02 0.68552006869E+02 0.51482503447E+02
 0.38854768003E+02 0.29862174709E+02 0.23640422682E+02 0.19547688973E+02 0.17099936638E+02
 0.15827017017E+02 0.15270561628E+02 0.15082238039E+02 0.15056318369E+02 0.15066204198E+02
 0.15010722833E+02 0.14815403721E+02 0.14431789544E+02 0.10115815574E+02 0.93901173356E+01
 0.87234136486E+01 0.81267486329E+01 0.75409987799E+01 0.69152915672E+01 0.62595821960E+01
 0.56214016038E+01 0.50306972342E+01 0.44867429878E+01 0.39903857187E+01 0.35634313533E+01
 0.32329204833E+01 0.30197889023E+01 0.29539016239E+01 0.30827082961E+01 0.34557055793E+01
 0.41238323953E+01 0.51800634430E+01 0.68018317626E+01 0.92573297182E+01 0.12902702890E+02
 0.18202115778E+02 0.25738743991E+02 0.36169334258E+02 0.50112281530E+02 0.67940950779E+02
 0.89434143216E+02 0.11339471152E+03 0.13756816061E+03 0.15862258970E+03 0.17364712617E+03
 0.18199714655E+03 0.18443035899E+03 0.18149990480E+03 0.17280001839E+03 0.15771681141E+03
 0.13698665109E+03 0.11347436767E+03 0.90265253388E+02 0.69595196391E+02 0.52694896799E+02
 0.39690110116E+02 0.30027824798E+02 0.23037909128E+02 0.18207329235E+02 0.15116095229E+02
 0.13310396080E+02 0.12329434892E+02 0.11826982193E+02 0.11614982415E+02 0.11586699787E+02
 0.11622282214E+02 0.11571314250E+02 0.11308556635E+02 0.10799076825E+02 0.76793512058E+01
 0.73636762157E+01 0.70677068034E+01 0.67429736253E+01 0.63499179386E+01 0.58992848888E+01
 0.54304084125E+01 0.49670950527E+01 0.45120297457E+01 0.40730515147E+01 0.36740935188E+01
 0.33409637712E+01 0.30927016981E+01 0.29523060924E+01 0.29556657436E+01 0.31433895132E+01
 0.35536806326E+01 0.42398229994E+01 0.53033784038E+01 0.69143471193E+01 0.93136163317E+01
 0.12819461480E+02 0.17841255980E+02 0.24871409088E+02 0.34435269950E+02 0.46997705371E+02
 0.62800407473E+02 0.81600936599E+02 0.10240072489E+03 0.12338387148E+03 0.14221573826E+03
 0.15652670117E+03 0.16450483953E+03 0.16536971275E+03 0.15911556238E+03 0.14642697801E+03
 0.12889007381E+03 0.10870992597E+03 0.88154978335E+02 0.69211511300E+02 0.53159815791E+02
 0.40367910322E+02 0.30509816195E+02 0.23063978360E+02 0.17654668410E+02 0.14004579606E+02
 0.11738639398E+02 0.10384712825E+02 0.95607572730E+01 0.90762645344E+01 0.88430824012E+01
 0.87573889681E+01 0.86933411991E+01 0.85600324015E+01 0.83273811173E+01 0.80163159653E+01
 0.65413934387E+01 0.65014380528E+01 0.63040193834E+01 0.59768026287E+01 0.55967799502E+01
 0.52342827550E+01 0.49041218123E+01 0.45755115984E+01 0.42282398020E+01 0.38830023373E+01
 0.35761565906E+01 0.33291065785E+01 0.31557720689E+01 0.30827304699E+01 0.31450266350E+01
 0.33728340354E+01 0.38011076366E+01 0.44941390369E+01 0.55579914037E+01 0.71439645975E+01
 0.94629225474E+01 0.12803325513E+02 0.17526331390E+02 0.24032205549E+02 0.32710790587E+02
 0.43866958896E+02 0.57587910278E+02 0.73551674865E+02 0.90853051588E+02 0.10796793329E+03
 0.12293774849E+03 0.13375685026E+03 0.13884908736E+03 0.13746897410E+03 0.12987991220E+03
 0.11725512162E+03 0.10137197667E+03 0.84227274476E+02 0.67653114740E+02 0.52971265262E+02
 0.40786495835E+02 0.31064844894E+02 0.23479768803E+02 0.17747850532E+02 0.13679005421E+02
 0.11006508174E+02 0.93142761554E+01 0.81959339739E+01 0.74316164245E+01 0.69565380769E+01
 0.67041845761E+01 0.65568848988E+01 0.64364085212E+01 0.63611755940E+01 0.63779111309E+01
 0.64679893670E+01 0.56275688841E+01 0.55531318010E+01 0.53969903246E+01 0.52160403267E+01
 0.50438901703E+01 0.48768516426E+01 0.46885879074E+01 0.44610060979E+01 0.42065605486E+01
 0.39595772490E+01 0.37483246359E+01 0.35845621732E+01 0.34800368252E+01 0.34599466001E+01
 0.35559449759E+01 0.38003366801E+01 0.42383018877E+01 0.49403513753E+01 0.60025535194E+01
 0.75560000384E+01 0.97956023076E+01 0.12992334743E+02 0.17458954614E+02 0.23496107089E+02
 0.31354553846E+02 0.41190153096E+02 0.52963339488E+02 0.66293668392E+02 0.80342766508E+02
 0.93802993594E+02 0.10504787117E+03 0.11246503562E+03 0.11489363527E+03 0.11196993986E+03
 0.10420455750E+03 0.92795974434E+02 0.79323137558E+02 0.65414566351E+02 0.52411751742E+02
 0.41107835714E+02 0.31724657357E+02 0.24158005667E+02 0.18264045853E+02 0.13930201972E+02
 0.10952108093E+02 0.89691152637E+01 0.75944768129E+01 0.65930701271E+01 0.59001761124E+01
 0.54921466350E+01 0.52927222715E+01 0.52096578983E+01 0.52066341299E+01 0.52915406905E+01
 0.54429772705E+01 0.55825764536E+01 0.46469295667E+01 0.46038519194E+01 0.46617324045E+01
 0.47847619844E+01 0.48868074776E+01 0.49006354803E+01 0.48181345696E+01 0.46775685582E+01
 0.45242055992E+01 0.43839330290E+01 0.42642818224E+01 0.41700607026E+01 0.41156377537E+01
 0.41269042058E+01 0.42380825287E+01 0.44913999575E+01 0.49399194203E+01 0.56494912324E+01
 0.67057274006E+01 0.82358245019E+01 0.10431278823E+02 0.13537566976E+02 0.17806241192E+02
 0.23450095803E+02 0.30625191679E+02 0.39399641617E+02 0.49661092446E+02 0.60987434936E+02
 0.72563324975E+02 0.83211131723E+02 0.91565798711E+02 0.96382640458E+02 0.96888286396E+02
 0.93010953746E+02 0.85377691221E+02 0.75120702543E+02 0.63606319712E+02 0.52138326990E+02
 0.41670909110E+02 0.32661657610E+02 0.25183906564E+02 0.19186435833E+02 0.14624891128E+02
 0.11373901208E+02 0.91343385068E+01 0.75364191083E+01 0.63356586891E+01 0.54637974647E+01
 0.49087930709E+01 0.46125503206E+01 0.44940184384E+01 0.45040464507E+01 0.46069297540E+01
 0.47314635414E+01 0.47875881844E+01 0.47405192452E+01 0.43636274772E+01 0.45764443051E+01
 0.48375668163E+01 0.50709058651E+01 0.52250025992E+01 0.52937908953E+01 0.53043027905E+01
 0.52901482829E+01 0.52699454938E+01 0.52439664203E+01 0.52078444816E+01 0.51680517170E+01
 0.51466080003E+01 0.51768842005E+01 0.52988561429E+01 0.55575475638E+01 0.60048408661E+01
 0.67067292395E+01 0.77575698626E+01 0.92946083736E+01 0.11498253195E+02 0.14571731866E+02
 0.18715460564E+02 0.24114810236E+02 0.30924965991E+02 0.39204863524E+02 0.48786143350E+02
 0.59145014577E+02 0.69378775332E+02 0.78329021272E+02 0.84808359564E+02 0.87855944626E+02
 0.86960930753E+02 0.82204205482E+02 0.74272194659E+02 0.64313959439E+02 0.53653829413E+02
 0.43441430149E+02 0.34395475639E+02 0.26782703300E+02 0.20606195951E+02 0.15796286988E+02
 0.12236164633E+02 0.96935218776E+01 0.78509231532E+01 0.64577553082E+01 0.54220646501E+01
 0.47327194014E+01 0.43359173462E+01 0.41285442268E+01 0.40367890761E+01 0.40372877636E+01
 0.41005631961E+01 0.41674709868E+01 0.42040730982E+01 0.42468962077E+01 0.48779633751E+01
 0.52560887834E+01 0.55310279847E+01 0.57129418922E+01 0.58642498232E+01 0.60335773480E+01
 0.62223876113E+01 0.64034531328E+01 0.65522794816E+01 0.66575890725E+01 0.67174598838E+01
 0.67410001017E+01 0.67544020155E+01 0.67976317601E+01 0.69136838908E+01 0.71473554975E+01
 0.75585903409E+01 0.82353181006E+01 0.92935913387E+01 0.10871432772E+02 0.13127634661E+02
 0.16247405601E+02 0.20452371113E+02 0.26002693255E+02 0.33147476453E+02 0.41973380432E+02
 0.52187713823E+02 0.62994759457E+02 0.73211427433E+02 0.81573101766E+02 0.87013085754E+02
 0.88780653016E+02 0.86493790344E+02 0.80278499132E+02 0.70929353687E+02 0.59836807462E+02
 0.48569232269E+02 0.38344300866E+02 0.29757875881E+02 0.22891347497E+02 0.17583906696E+02
 0.13604283150E+02 0.10679899177E+02 0.85172991149E+01 0.68831891367E+01 0.56644231579E+01
 0.48246798835E+01 0.43105865262E+01 0.40206635613E+01 0.38551115642E+01 0.37629598334E+01
 0.37335216501E+01 0.37698734484E+01 0.38880145952E+01 0.41173962991E+01 0.44655884980E+01
 0.53425762271E+01 0.57029660932E+01 0.60369511707E+01 0.63980050586E+01 0.68232612135E+01
 0.73024864915E+01 0.77864875192E+01 0.82239795353E+01 0.85883391382E+01 0.88717876126E+01
 0.90689122742E+01 0.91805960274E+01 0.92297085154E+01 0.92591124226E+01 0.93174750320E+01
 0.94647536529E+01 0.97937336287E+01 0.10428603588E+02 0.11497650463E+02 0.13128260585E+02
 0.15487911023E+02 0.18835972177E+02 0.23549801265E+02 0.30102708666E+02 0.38922718193E+02
 0.50065470957E+02 0.62848559667E+02 0.75818775376E+02 0.87553224544E+02 0.97766703387E+02
 0.10434315555E+03 0.10496205125E+03 0.99043419787E+02 0.88315054227E+02 0.75355909436E+02
 0.61198015223E+02 0.47614147888E+02 0.36110600036E+02 0.27162674070E+02 0.20528168930E+02
 0.15710590652E+02 0.12214141545E+02 0.96254289565E+01 0.76633145396E+01 0.61936534922E+01
 0.51603675585E+01 0.44927061393E+01 0.40849074967E+01 0.38413293459E+01 0.37081792176E+01
 0.36646067750E+01 0.37092407036E+01 0.38578307304E+01 0.41276008990E+01 0.45047739200E+01
 0.49325250014E+01 0.55771745226E+01 0.60970464244E+01 0.67899043534E+01 0.76255814932E+01
 0.85356782432E+01 0.94505304869E+01 0.10315859492E+02 0.11097699779E+02 0.11774944207E+02
 0.12321373481E+02 0.12703698483E+02 0.12907604040E+02 0.12957848230E+02 0.12906537957E+02
 0.12820886242E+02 0.12800611998E+02 0.12988722096E+02 0.13536853940E+02 0.14573509909E+02
 0.16248773449E+02 0.18836021827E+02 0.22816329238E+02 0.28914564489E+02 0.38016696326E+02
 0.50773187742E+02 0.66870026945E+02 0.85650603433E+02 0.11189335955E+03 0.14312041622E+03
 0.16967174683E+03 0.18301076405E+03 0.17840118531E+03 0.15603454610E+03 0.12299982909E+03
 0.91024210157E+02 0.67687163714E+02 0.50017660760E+02 0.36072150693E+02 0.26065964058E+02
 0.19230948133E+02 0.14587887965E+02 0.11330902744E+02 0.89261751932E+01 0.71107769411E+01
 0.57945913130E+01 0.49081164967E+01 0.43367706055E+01 0.39717511703E+01 0.37586843707E+01
 0.36781257103E+01 0.37174132190E+01 0.38733638954E+01 0.41424333915E+01 0.44873087431E+01
 0.48442368265E+01 0.51889750521E+01 0.64512516786E+01 0.74599745656E+01 0.86653615309E+01
 0.99909043531E+01 0.11386733249E+02 0.12810731533E+02 0.14207697484E+02 0.15518669701E+02
 0.16678239954E+02 0.17600254089E+02 0.18204846896E+02 0.18471896721E+02 0.18446132005E+02
 0.18200475865E+02 0.17837876409E+02 0.17524073528E+02 0.17459914138E+02 0.17809207162E+02
 0.18717405278E+02 0.20452126117E+02 0.23548802706E+02 0.28914192579E+02 0.37883823778E+02
 0.51938752315E+02 0.71681560802E+02 0.10321725384E+03 0.16235938871E+03 0.24229386247E+03
 0.31998799565E+03 0.37434784530E+03 0.39239505922E+03 0.36733362121E+03 0.30190335900E+03
 0.21458773497E+03 0.13420984643E+03 0.81463960434E+02 0.54509853237E+02 0.37371690757E+02
 0.25880704540E+02 0.18581248292E+02 0.13931674338E+02 0.10802203036E+02 0.85328393979E+01
 0.68441397973E+01 0.56423711058E+01 0.48327432527E+01 0.42940500281E+01 0.39518654128E+01
 0.37831442378E+01 0.37604095952E+01 0.38495739101E+01 0.40438181208E+01 0.43430796669E+01
 0.47174553624E+01 0.51481983768E+01 0.56930163866E+01 0.83702893569E+01 0.99217284241E+01
 0.11619604917E+02 0.13480572403E+02 0.15547499803E+02 0.17774806899E+02 0.20030330780E+02
 0.22168278899E+02 0.24037759390E+02 0.25465970194E+02 0.26322487704E+02 0.26596274891E+02
 0.26365398677E+02 0.25734819681E+02 0.24869642192E+02 0.24034218573E+02 0.23499732928E+02
 0.23451956393E+02 0.24113964855E+02 0.26000959183E+02 0.30101911308E+02 0.38016815096E+02
 0.51938884771E+02 0.73840116441E+02 0.11853389272E+03 0.21892931002E+03 0.37223805066E+03
 0.54052540947E+03 0.68069892945E+03 0.76381991289E+03 0.77236650332E+03 0.69708755559E+03
 0.54869346818E+03 0.36750811447E+03 0.20804748513E+03 0.10618810036E+03 0.59785437670E+02
 0.39017596820E+02 0.26065948769E+02 0.18294391885E+02 0.13599661252E+02 0.10552853263E+02
 0.83838124478E+01 0.67871819711E+01 0.56535424952E+01 0.48762704163E+01 0.43517141516E+01
 0.40384247873E+01 0.39184992945E+01 0.39401222372E+01 0.40575845413E+01 0.42861817521E+01
 0.46677271798E+01 0.52254608269E+01 0.59943763519E+01 0.70371162567E+01 0.10753958565E+02
 0.12855569308E+02 0.15296634819E+02 0.18170540535E+02 0.21481514807E+02 0.25059928219E+02
 0.28648808661E+02 0.31999950550E+02 0.34852001204E+02 0.36924765359E+02 0.38037213612E+02
 0.38193781609E+02 0.37515153305E+02 0.36170927994E+02 0.34438455540E+02 0.32712904506E+02
 0.31353920144E+02 0.30622745535E+02 0.30923031975E+02 0.33147296599E+02 0.38923577885E+02
 0.50773725564E+02 0.71681325996E+02 0.11853346425E+03 0.24421643604E+03 0.46744267915E+03
 0.74861106376E+03 0.10195679545E+04 0.12226656329E+04 0.13215165647E+04 0.12917488036E+04
 0.11253937246E+04 0.85271057326E+03 0.54727749482E+03 0.29249257135E+03 0.13473587770E+03
 0.65318179257E+02 0.40232413116E+02 0.26262176718E+02 0.18211561283E+02 0.13509582073E+02
 0.10512940846E+02 0.84003321358E+01 0.68586313699E+01 0.57632747892E+01 0.50047430211E+01
 0.45000841112E+01 0.42217703357E+01 0.41427658850E+01 0.42092560306E+01 0.44052197312E+01
 0.47854446877E+01 0.54101124958E+01 0.62985859702E+01 0.74680154731E+01 0.89518018089E+01
 0.13433556388E+02 0.16517151462E+02 0.20347738370E+02 0.24950166280E+02 0.30180224320E+02
 0.35728984239E+02 0.41219958358E+02 0.46251735157E+02 0.50379021640E+02 0.53186754562E+02
 0.54455882255E+02 0.54220390582E+02 0.52673432535E+02 0.50116474416E+02 0.46999869081E+02
 0.43865254040E+02 0.41186509846E+02 0.39397359852E+02 0.39205234812E+02 0.41975079022E+02
 0.50066540256E+02 0.66869701059E+02 0.10321609835E+03 0.21892831146E+03 0.46744234503E+03
 0.83507147835E+03 0.12469442661E+04 0.16123806860E+04 0.18613185645E+04 0.19470747177E+04
 0.18406280984E+04 0.15469983179E+04 0.11292070976E+04 0.69779035716E+03 0.35762580460E+03
 0.15506723241E+03 0.68803018741E+02 0.40680603007E+02 0.26304216482E+02 0.18223050085E+02
 0.13567507059E+02 0.10604188234E+02 0.85212691687E+01 0.70092964905E+01 0.59304985625E+01
 0.51818781597E+01 0.47007574491E+01 0.44597844162E+01 0.44232535889E+01 0.45593911128E+01
 0.48957317990E+01 0.55008872572E+01 0.64048344773E+01 0.75937374247E+01 0.90916504289E+01
 0.10996749409E+02 0.17322819098E+02 0.22071357618E+02 0.27949570853E+02 0.34899899617E+02
 0.42697954266E+02 0.50928791361E+02 0.59000859552E+02 0.66190766079E+02 0.71769659001E+02
 0.75212211151E+02 0.76338071482E+02 0.75268074450E+02 0.72310459400E+02 0.67939457339E+02
 0.62797490826E+02 0.57586003458E+02 0.52963859157E+02 0.49663201513E+02 0.48787971905E+02
 0.52188168463E+02 0.62847717848E+02 0.85649043481E+02 0.16235779124E+03 0.37223711839E+03
 0.74861109058E+03 0.12469447231E+04 0.17663005059E+04 0.21981145666E+04 0.24583641791E+04
 0.24919888604E+04 0.22771138054E+04 0.18463744883E+04 0.12999041882E+04 0.77518445299E+03
 0.38297074871E+03 0.15938674115E+03 0.68478812905E+02 0.40326545427E+02 0.26115188751E+02
 0.18223980215E+02 0.13673106187E+02 0.10752683663E+02 0.86909183597E+01 0.71883785101E+01
 0.61092221260E+01 0.53664565805E+01 0.49107895511E+01 0.47110333077E+01 0.47328685938E+01
 0.49671863973E+01 0.54571102651E+01 0.62571406751E+01 0.73902563027E+01 0.88958176541E+01
 0.10909069434E+02 0.13648297286E+02 0.23146892721E+02 0.30060149131E+02 0.38539620358E+02
 0.48559829275E+02 0.59823631565E+02 0.71630344450E+02 0.82896570999E+02 0.92399829637E+02
 0.99168462421E+02 0.10276536551E+03 0.10324774605E+03 0.10090761735E+03 0.96122647470E+02
 0.89429793277E+02 0.81598578086E+02 0.73553232780E+02 0.66297333225E+02 0.60990027590E+02
 0.59145172146E+02 0.62993316835E+02 0.75816954072E+02 0.11189170976E+03 0.24229274345E+03
 0.54052533315E+03 0.10195689756E+04 0.16123820250E+04 0.21981153178E+04 0.26512105534E+04
 0.28770654866E+04 0.28247748451E+04 0.24955362893E+04 0.19553052630E+04 0.13305160152E+04
 0.76628970345E+03 0.36467099880E+03 0.14710433943E+03 0.64658926281E+02 0.39154846618E+02
 0.25617098604E+02 0.18120574345E+02 0.13744578910E+02 0.10886083711E+02 0.88351395473E+01
 0.73268878977E+01 0.62507577053E+01 0.55295611918E+01 0.51090078542E+01 0.49576623492E+01
 0.50569958411E+01 0.54124872081E+01 0.60653700716E+01 0.70803820756E+01 0.85511826531E+01
 0.10644124840E+02 0.13608942845E+02 0.17709165589E+02 0.30605520515E+02 0.40195330837E+02
 0.52124373277E+02 0.66334306118E+02 0.82148770531E+02 0.98157228983E+02 0.11249979380E+03
 0.12351182594E+03 0.13028113616E+03 0.13298858132E+03 0.13241979596E+03 0.12895656846E+03
 0.12252541372E+03 0.11339649233E+03 0.10240344603E+03 0.90854430022E+02 0.80342004313E+02
 0.72561667752E+02 0.69377674300E+02 0.73210939536E+02 0.87552584270E+02 0.14311956352E+03
 0.31998781554E+03 0.68070007135E+03 0.12226676561E+04 0.18613204094E+04 0.24583651682E+04
 0.28770657139E+04 0.30265964984E+04 0.28775532219E+04 0.24614248479E+04 0.18676064266E+04
 0.12287646000E+04 0.68077015191E+03 0.31000451637E+03 0.12300183628E+03 0.59158421451E+02
 0.37103710171E+02 0.24738133080E+02 0.17840877367E+02 0.13710855901E+02 0.10927260199E+02
 0.88829504228E+01 0.73780808630E+01 0.63308306404E+01 0.56559322950E+01 0.52854702286E+01
 0.51967931823E+01 0.53943047214E+01 0.59006719468E+01 0.67786302251E+01 0.81501404901E+01