   8   8   0   0
  0.1822300E+02  0.6414553E-09  0.6414553E-09  0.6414553E-09  0.5000000E-15
  1.000000000000000E-004
  CAR 
 unknown system                          
     15.87078326    -69.26176316  301      4.53752893      1.00000000
    -69.262  0.0000E+00  0.0000E+00
    -68.978  0.0000E+00  0.0000E+00
    -68.694  0.0000E+00  0.0000E+00
    -68.410  0.0000E+00  0.0000E+00
    -68.127  0.0000E+00  0.0000E+00
    -67.843  0.0000E+00  0.0000E+00
    -67.559  0.0000E+00  0.0000E+00
    -67.275  0.0000E+00  0.0000E+00
    -66.992  0.0000E+00  0.0000E+00
    -66.708  0.0000E+00  0.0000E+00
    -66.424  0.6767E-12  0.1920E-12
    -66.140  0.4118E-06  0.1169E-06
    -65.856  0.5628E-02  0.1597E-02
    -65.573  0.1974E+01  0.5618E+00
    -65.289  0.2407E+02  0.7391E+01
    -65.005  0.1575E+02  0.1186E+02
    -64.721  0.4898E+00  0.1200E+02
    -64.438  0.4508E-03  0.1200E+02
    -64.154  0.9528E-08  0.1200E+02
    -63.870  0.3450E-14  0.1200E+02
    -63.586  0.0000E+00  0.1200E+02
    -63.302  0.0000E+00  0.1200E+02
    -63.019  0.0000E+00  0.1200E+02
    -62.735  0.0000E+00  0.1200E+02
    -62.451  0.0000E+00  0.1200E+02
    -62.167  0.0000E+00  0.1200E+02
    -61.884  0.0000E+00  0.1200E+02
    -61.600  0.0000E+00  0.1200E+02
    -61.316  0.0000E+00  0.1200E+02
    -61.032  0.0000E+00  0.1200E+02
    -60.749  0.0000E+00  0.1200E+02
    -60.465  0.0000E+00  0.1200E+02
    -60.181  0.0000E+00  0.1200E+02
    -59.897  0.0000E+00  0.1200E+02
    -59.613  0.0000E+00  0.1200E+02
    -59.330  0.0000E+00  0.1200E+02
    -59.046  0.0000E+00  0.1200E+02
    -58.762  0.0000E+00  0.1200E+02
    -58.478  0.0000E+00  0.1200E+02
    -58.195  0.0000E+00  0.1200E+02
    -57.911  0.0000E+00  0.1200E+02
    -57.627  0.0000E+00  0.1200E+02
    -57.343  0.0000E+00  0.1200E+02
    -57.059  0.0000E+00  0.1200E+02
    -56.776  0.0000E+00  0.1200E+02
    -56.492  0.0000E+00  0.1200E+02
    -56.208  0.0000E+00  0.1200E+02
    -55.924  0.0000E+00  0.1200E+02
    -55.641  0.0000E+00  0.1200E+02
    -55.357  0.0000E+00  0.1200E+02
    -55.073  0.0000E+00  0.1200E+02
    -54.789  0.0000E+00  0.1200E+02
    -54.505  0.0000E+00  0.1200E+02
    -54.222  0.0000E+00  0.1200E+02
    -53.938  0.0000E+00  0.1200E+02
    -53.654  0.0000E+00  0.1200E+02
    -53.370  0.0000E+00  0.1200E+02
    -53.087  0.0000E+00  0.1200E+02
    -52.803  0.0000E+00  0.1200E+02
    -52.519  0.0000E+00  0.1200E+02
    -52.235  0.0000E+00  0.1200E+02
    -51.951  0.0000E+00  0.1200E+02
    -51.668  0.0000E+00  0.1200E+02
    -51.384  0.0000E+00  0.1200E+02
    -51.100  0.0000E+00  0.1200E+02
    -50.816  0.0000E+00  0.1200E+02
    -50.533  0.0000E+00  0.1200E+02
    -50.249  0.0000E+00  0.1200E+02
    -49.965  0.0000E+00  0.1200E+02
    -49.681  0.0000E+00  0.1200E+02
    -49.398  0.6921E-11  0.1200E+02
    -49.114  0.2777E-05  0.1200E+02
    -48.830  0.2264E-01  0.1201E+02
    -48.546  0.4326E+01  0.1323E+02
    -48.262  0.2823E+02  0.2124E+02
    -47.979  0.9583E+01  0.2396E+02
    -47.695  0.1277E+00  0.2400E+02
    -47.411  0.4275E-04  0.2400E+02
    -47.127  0.2984E-09  0.2400E+02
    -46.844  0.0000E+00  0.2400E+02
    -46.560  0.0000E+00  0.2400E+02
    -46.276  0.0000E+00  0.2400E+02
    -45.992  0.0000E+00  0.2400E+02
    -45.708  0.0000E+00  0.2400E+02
    -45.425  0.0000E+00  0.2400E+02
    -45.141  0.0000E+00  0.2400E+02
    -44.857  0.0000E+00  0.2400E+02
    -44.573  0.0000E+00  0.2400E+02
    -44.290  0.0000E+00  0.2400E+02
    -44.006  0.0000E+00  0.2400E+02
    -43.722  0.0000E+00  0.2400E+02
    -43.438  0.0000E+00  0.2400E+02
    -43.154  0.0000E+00  0.2400E+02
    -42.871  0.0000E+00  0.2400E+02
    -42.587  0.0000E+00  0.2400E+02
    -42.303  0.0000E+00  0.2400E+02
    -42.019  0.0000E+00  0.2400E+02
    -41.736  0.0000E+00  0.2400E+02
    -41.452  0.0000E+00  0.2400E+02
    -41.168  0.0000E+00  0.2400E+02
    -40.884  0.0000E+00  0.2400E+02
    -40.600  0.0000E+00  0.2400E+02
    -40.317  0.0000E+00  0.2400E+02
    -40.033  0.0000E+00  0.2400E+02
    -39.749  0.0000E+00  0.2400E+02
    -39.465  0.0000E+00  0.2400E+02
    -39.182  0.0000E+00  0.2400E+02
    -38.898  0.0000E+00  0.2400E+02
    -38.614  0.0000E+00  0.2400E+02
    -38.330  0.0000E+00  0.2400E+02
    -38.046  0.0000E+00  0.2400E+02
    -37.763  0.0000E+00  0.2400E+02
    -37.479  0.0000E+00  0.2400E+02
    -37.195  0.0000E+00  0.2400E+02
    -36.911  0.0000E+00  0.2400E+02
    -36.628  0.0000E+00  0.2400E+02
    -36.344  0.0000E+00  0.2400E+02
    -36.060  0.0000E+00  0.2400E+02
    -35.776  0.0000E+00  0.2400E+02
    -35.493  0.0000E+00  0.2400E+02
    -35.209  0.0000E+00  0.2400E+02
    -34.925  0.0000E+00  0.2400E+02
    -34.641  0.0000E+00  0.2400E+02
    -34.357  0.0000E+00  0.2400E+02
    -34.074  0.0000E+00  0.2400E+02
    -33.790  0.0000E+00  0.2400E+02
    -33.506  0.0000E+00  0.2400E+02
    -33.222  0.0000E+00  0.2400E+02
    -32.939  0.0000E+00  0.2400E+02
    -32.655  0.0000E+00  0.2400E+02
    -32.371  0.0000E+00  0.2400E+02
    -32.087  0.0000E+00  0.2400E+02
    -31.803  0.0000E+00  0.2400E+02
    -31.520  0.0000E+00  0.2400E+02
    -31.236  0.0000E+00  0.2400E+02
    -30.952  0.0000E+00  0.2400E+02
    -30.668  0.0000E+00  0.2400E+02
    -30.385  0.0000E+00  0.2400E+02
    -30.101  0.0000E+00  0.2400E+02
    -29.817  0.0000E+00  0.2400E+02
    -29.533  0.0000E+00  0.2400E+02
    -29.249  0.0000E+00  0.2400E+02
    -28.966  0.0000E+00  0.2400E+02
    -28.682  0.0000E+00  0.2400E+02
    -28.398  0.0000E+00  0.2400E+02
    -28.114  0.0000E+00  0.2400E+02
    -27.831  0.0000E+00  0.2400E+02
    -27.547  0.0000E+00  0.2400E+02
    -27.263  0.0000E+00  0.2400E+02
    -26.979  0.0000E+00  0.2400E+02
    -26.695  0.0000E+00  0.2400E+02
    -26.412  0.0000E+00  0.2400E+02
    -26.128  0.0000E+00  0.2400E+02
    -25.844  0.0000E+00  0.2400E+02
    -25.560  0.0000E+00  0.2400E+02
    -25.277  0.0000E+00  0.2400E+02
    -24.993  0.0000E+00  0.2400E+02
    -24.709  0.0000E+00  0.2400E+02
    -24.425  0.0000E+00  0.2400E+02
    -24.142  0.0000E+00  0.2400E+02
    -23.858  0.0000E+00  0.2400E+02
    -23.574  0.0000E+00  0.2400E+02
    -23.290  0.0000E+00  0.2400E+02
    -23.006  0.0000E+00  0.2400E+02
    -22.723  0.0000E+00  0.2400E+02
    -22.439  0.0000E+00  0.2400E+02
    -22.155  0.0000E+00  0.2400E+02
    -21.871  0.0000E+00  0.2400E+02
    -21.588  0.0000E+00  0.2400E+02
    -21.304  0.0000E+00  0.2400E+02
    -21.020  0.0000E+00  0.2400E+02
    -20.736  0.0000E+00  0.2400E+02
    -20.452  0.0000E+00  0.2400E+02
    -20.169  0.0000E+00  0.2400E+02
    -19.885  0.0000E+00  0.2400E+02
    -19.601  0.0000E+00  0.2400E+02
    -19.317  0.0000E+00  0.2400E+02
    -19.034  0.0000E+00  0.2400E+02
    -18.750  0.0000E+00  0.2400E+02
    -18.466  0.0000E+00  0.2400E+02
    -18.182  0.0000E+00  0.2400E+02
    -17.898  0.0000E+00  0.2400E+02
    -17.615  0.0000E+00  0.2400E+02
    -17.331  0.0000E+00  0.2400E+02
    -17.047  0.0000E+00  0.2400E+02
    -16.763  0.0000E+00  0.2400E+02
    -16.480  0.0000E+00  0.2400E+02
    -16.196  0.0000E+00  0.2400E+02
    -15.912  0.0000E+00  0.2400E+02
    -15.628  0.0000E+00  0.2400E+02
    -15.344  0.0000E+00  0.2400E+02
    -15.061  0.0000E+00  0.2400E+02
    -14.777  0.0000E+00  0.2400E+02
    -14.493  0.0000E+00  0.2400E+02
    -14.209  0.0000E+00  0.2400E+02
    -13.926  0.0000E+00  0.2400E+02
    -13.642  0.0000E+00  0.2400E+02
    -13.358  0.0000E+00  0.2400E+02
    -13.074  0.0000E+00  0.2400E+02
    -12.791  0.0000E+00  0.2400E+02
    -12.507  0.0000E+00  0.2400E+02
    -12.223  0.0000E+00  0.2400E+02
    -11.939  0.0000E+00  0.2400E+02
    -11.655  0.0000E+00  0.2400E+02
    -11.372  0.0000E+00  0.2400E+02
    -11.088  0.0000E+00  0.2400E+02
    -10.804  0.3299E-14  0.2400E+02
    -10.520  0.3051E-08  0.2400E+02
    -10.237  0.5755E-04  0.2400E+02
     -9.953  0.2619E-01  0.2401E+02
     -9.669  0.4431E+00  0.2413E+02
     -9.385  0.6750E+00  0.2432E+02
     -9.101  0.2110E+01  0.2492E+02
     -8.818  0.8695E+01  0.2739E+02
     -8.534  0.1070E+02  0.3043E+02
     -8.250  0.5104E+01  0.3187E+02
     -7.966  0.4392E+00  0.3200E+02
     -7.683  0.1593E-02  0.3200E+02
     -7.399  0.1446E-06  0.3200E+02
     -7.115  0.2761E-12  0.3200E+02
     -6.831  0.0000E+00  0.3200E+02
     -6.547  0.0000E+00  0.3200E+02
     -6.264  0.0000E+00  0.3200E+02
     -5.980  0.0000E+00  0.3200E+02
     -5.696  0.0000E+00  0.3200E+02
     -5.412  0.0000E+00  0.3200E+02
     -5.129  0.0000E+00  0.3200E+02
     -4.845  0.0000E+00  0.3200E+02
     -4.561  0.0000E+00  0.3200E+02
     -4.277  0.0000E+00  0.3200E+02
     -3.993  0.0000E+00  0.3200E+02
     -3.710  0.0000E+00  0.3200E+02
     -3.426  0.0000E+00  0.3200E+02
     -3.142  0.0000E+00  0.3200E+02
     -2.858  0.0000E+00  0.3200E+02
     -2.575  0.0000E+00  0.3200E+02
     -2.291  0.1176E-10  0.3200E+02
     -2.007  0.1876E-05  0.3200E+02
     -1.723  0.6936E-02  0.3200E+02
     -1.440  0.7921E+00  0.3223E+02
     -1.156  0.5367E+01  0.3375E+02
     -0.872  0.7238E+01  0.3580E+02
     -0.588  0.9300E+01  0.3844E+02
     -0.304  0.5798E+01  0.4009E+02
     -0.021  0.4070E+01  0.4124E+02
      0.263  0.1179E+02  0.4459E+02
      0.547  0.2319E+02  0.5117E+02
      0.831  0.1472E+02  0.5534E+02
      1.114  0.2271E+01  0.5599E+02
      1.398  0.6947E-01  0.5601E+02
      1.682  0.2869E+01  0.5682E+02
      1.966  0.1587E+02  0.6133E+02
      2.250  0.1504E+02  0.6559E+02
      2.533  0.9882E+01  0.6840E+02
      2.817  0.1072E+02  0.7144E+02
      3.101  0.1172E+02  0.7477E+02
      3.385  0.5217E+01  0.7625E+02
      3.668  0.7784E+01  0.7846E+02
      3.952  0.1117E+02  0.8163E+02
      4.236  0.7996E+01  0.8390E+02
      4.520  0.6933E+01  0.8586E+02
      4.804  0.9076E+01  0.8844E+02
      5.087  0.8768E+01  0.9093E+02
      5.371  0.9393E+01  0.9359E+02
      5.655  0.5324E+01  0.9510E+02
      5.939  0.1334E+01  0.9548E+02
      6.222  0.1308E+01  0.9585E+02
      6.506  0.5051E+00  0.9600E+02
      6.790  0.1483E-01  0.9600E+02
      7.074  0.4839E-01  0.9601E+02
      7.358  0.3204E+00  0.9610E+02
      7.641  0.1229E+00  0.9614E+02
      7.925  0.1444E+00  0.9618E+02
      8.209  0.2726E+00  0.9626E+02
      8.493  0.7320E+00  0.9647E+02
      8.776  0.2911E+01  0.9729E+02
      9.060  0.4598E+01  0.9860E+02
      9.344  0.3466E+01  0.9958E+02
      9.628  0.2516E+01  0.1003E+03
      9.912  0.4290E+01  0.1015E+03
     10.195  0.4282E+01  0.1027E+03
     10.479  0.4384E+01  0.1040E+03
     10.763  0.5968E+01  0.1057E+03
     11.047  0.4062E+01  0.1068E+03
     11.330  0.5254E+01  0.1083E+03
     11.614  0.7162E+01  0.1103E+03
     11.898  0.4168E+01  0.1115E+03
     12.182  0.1564E+01  0.1120E+03
     12.465  0.1177E+00  0.1120E+03
     12.749  0.3639E-03  0.1120E+03
     13.033  0.2934E-07  0.1120E+03
     13.317  0.5369E-13  0.1120E+03
     13.601  0.0000E+00  0.1120E+03
     13.884  0.0000E+00  0.1120E+03
     14.168  0.0000E+00  0.1120E+03
     14.452  0.0000E+00  0.1120E+03
     14.736  0.0000E+00  0.1120E+03
     15.019  0.0000E+00  0.1120E+03
     15.303  0.0000E+00  0.1120E+03
     15.587  0.0000E+00  0.1120E+03
     15.871  0.0000E+00  0.1120E+03
