    8    8    1    1
  0.1822300E+02  0.6414553E-09  0.6414553E-09  0.6414553E-09  0.5000000E-15
  1.000000000000000E-004
  CAR 
 unknown system                          
   86   44   56
 
  0.0000000E+00  0.0000000E+00  0.0000000E+00  0.2272727E-01
   1      -65.350854
   2      -65.347142
   3      -65.346091
   4      -65.306026
   5      -65.289621
   6      -65.288879
   7      -48.370878
   8      -48.370852
   9      -48.369417
  10      -48.369390
  11      -48.362292
  12      -48.359449
  13       -9.715215
  14       -8.452618
  15       -8.452618
  16       -8.433243
  17       -1.277545
  18       -0.438942
  19       -0.438478
  20       -0.437959
  21       -0.423932
  22        0.248737
  23        0.248974
  24        0.304806
  25        0.633659
  26        0.633854
  27        0.755195
  28        0.755215
  29        1.723781
  30        1.854075
  31        2.017558
  32        2.084407
  33        2.113664
  34        2.113937
  35        2.154795
  36        2.711130
  37        2.711153
  38        2.777490
  39        3.265054
  40        3.695656
  41        3.778806
  42        3.993123
  43        3.993174
  44        4.352724
  45        4.369025
  46        6.134774
  47        6.134858
  48        6.220198
  49        7.254042
  50        8.480676
  51        9.668472
  52       10.583342
  53       10.583392
  54       11.544772
  55       11.551254
  56       11.551459
 
  0.0000000E+00  0.0000000E+00  0.1666667E+00  0.2272727E-01
   1      -65.361938
   2      -65.345797
   3      -65.325561
   4      -65.322998
   5      -65.309447
   6      -65.308842
   7      -48.370727
   8      -48.370604
   9      -48.369632
  10      -48.369623
  11      -48.362162
  12      -48.359805
  13       -9.574356
  14       -8.535626
  15       -8.535257
  16       -8.439448
  17       -1.075699
  18       -0.709918
  19       -0.692702
  20       -0.208439
  21       -0.202825
  22        0.014627
  23        0.281772
  24        0.312866
  25        0.342682
  26        0.586551
  27        0.658694
  28        0.717824
  29        1.770221
  30        1.844802
  31        1.982761
  32        2.020840
  33        2.095618
  34        2.211225
  35        2.221485
  36        2.720277
  37        2.812000
  38        3.089224
  39        3.433860
  40        3.767736
  41        3.904467
  42        3.918900
  43        4.007247
  44        4.541304
  45        4.558925
  46        5.434958
  47        5.817428
  48        6.036370
  49        8.135354
  50        8.967724
  51       10.257569
  52       10.624661
  53       10.654327
  54       11.087053
  55       11.354605
  56       11.536010
 
  0.0000000E+00  0.0000000E+00  0.3333333E+00  0.2272727E-01
   1      -65.354409
   2      -65.347974
   3      -65.331890
   4      -65.321368
   5      -65.316607
   6      -65.308783
   7      -48.370656
   8      -48.370483
   9      -48.369915
  10      -48.369834
  11      -48.361517
  12      -48.360150
  13       -9.210972
  14       -8.691421
  15       -8.691079
  16       -8.524253
  17       -1.136457
  18       -1.136102
  19       -0.542364
  20       -0.455531
  21       -0.336935
  22        0.190544
  23        0.225298
  24        0.320731
  25        0.361056
  26        0.493198
  27        0.557171
  28        0.641363
  29        1.800829
  30        1.865499
  31        1.943780
  32        2.037586
  33        2.100764
  34        2.396534
  35        2.496655
  36        2.827412
  37        2.928007
  38        3.361502
  39        3.643234
  40        3.698410
  41        3.909695
  42        4.191400
  43        4.571719
  44        4.598055
  45        4.870768
  46        5.044438
  47        5.260017
  48        5.749767
  49        9.210419
  50        9.509131
  51        9.746020
  52        9.985403
  53       11.159695
  54       11.189954
  55       11.568934
  56       11.828130
 
  0.0000000E+00  0.0000000E+00  0.5000000E+00  0.2272727E-01
   1      -65.355351
   2      -65.355351
   3      -65.322976
   4      -65.322976
   5      -65.302869
   6      -65.302869
   7      -48.370420
   8      -48.370420
   9      -48.370146
  10      -48.370146
  11      -48.360821
  12      -48.360821
  13       -8.796134
  14       -8.796134
  15       -8.764298
  16       -8.764298
  17       -1.312518
  18       -1.312518
  19       -0.696395
  20       -0.696395
  21        0.026299
  22        0.026299
  23        0.413297
  24        0.413297
  25        0.429241
  26        0.429241
  27        0.563263
  28        0.563263
  29        1.825455
  30        1.825455
  31        2.025962
  32        2.025962
  33        2.362140
  34        2.362140
  35        2.880140
  36        2.880140
  37        2.921694
  38        2.921694
  39        3.672562
  40        3.672562
  41        4.090888
  42        4.090888
  43        4.750049
  44        4.750049
  45        5.189662
  46        5.189662
  47        5.435218
  48        5.435218
  49        8.735779
  50        8.735779
  51       10.394256
  52       10.394256
  53       11.406993
  54       11.406994
  55       11.942608
  56       11.943653
 
  0.0000000E+00  0.0000000E+00  0.5000000E+00  0.2272727E-01
   1      -65.355351
   2      -65.355351
   3      -65.322976
   4      -65.322976
   5      -65.302869
   6      -65.302869
   7      -48.370420
   8      -48.370420
   9      -48.370146
  10      -48.370146
  11      -48.360821
  12      -48.360821
  13       -8.796134
  14       -8.796134
  15       -8.764298
  16       -8.764298
  17       -1.312518
  18       -1.312518
  19       -0.696395
  20       -0.696395
  21        0.026299
  22        0.026299
  23        0.413297
  24        0.413297
  25        0.429241
  26        0.429241
  27        0.563263
  28        0.563263
  29        1.825455
  30        1.825455
  31        2.025962
  32        2.025962
  33        2.362140
  34        2.362140
  35        2.880140
  36        2.880140
  37        2.921694
  38        2.921694
  39        3.672562
  40        3.672562
  41        4.090888
  42        4.090888
  43        4.750049
  44        4.750049
  45        5.189662
  46        5.189662
  47        5.435218
  48        5.435218
  49        8.735779
  50        8.735779
  51       10.394256
  52       10.394256
  53       11.406993
  54       11.406993
  55       11.942294
  56       11.942999
 
 -0.4291667E-01  0.4291667E-01  0.5000000E+00  0.2272727E-01
   1      -65.355860
   2      -65.355860
   3      -65.313882
   4      -65.313882
   5      -65.304190
   6      -65.304190
   7      -48.370393
   8      -48.370393
   9      -48.370084
  10      -48.370084
  11      -48.360858
  12      -48.360858
  13       -8.791416
  14       -8.791416
  15       -8.770590
  16       -8.770590
  17       -1.294696
  18       -1.294696
  19       -0.704679
  20       -0.704679
  21        0.036531
  22        0.036531
  23        0.412850
  24        0.412850
  25        0.428453
  26        0.428453
  27        0.563088
  28        0.563088
  29        1.826327
  30        1.826327
  31        2.020779
  32        2.020779
  33        2.371930
  34        2.371930
  35        2.865864
  36        2.865864
  37        2.930704
  38        2.930704
  39        3.671636
  40        3.671636
  41        4.075810
  42        4.075810
  43        4.753924
  44        4.753924
  45        5.185798
  46        5.185798
  47        5.409908
  48        5.409908
  49        8.762018
  50        8.762018
  51       10.482952
  52       10.482952
  53       11.315492
  54       11.315492
  55       11.939117
  56       11.953086
 
 -0.8583333E-01  0.8583333E-01  0.5000000E+00  0.2272727E-01
   1      -65.353395
   2      -65.353395
   3      -65.308300
   4      -65.308300
   5      -65.297990
   6      -65.297990
   7      -48.370472
   8      -48.370472
   9      -48.369943
  10      -48.369943
  11      -48.360851
  12      -48.360851
  13       -8.795440
  14       -8.795440
  15       -8.770993
  16       -8.770993
  17       -1.243663
  18       -1.243663
  19       -0.729536
  20       -0.729536
  21        0.066417
  22        0.066417
  23        0.409397
  24        0.409397
  25        0.429700
  26        0.429700
  27        0.562895
  28        0.562895
  29        1.826412
  30        1.826412
  31        2.009032
  32        2.009032
  33        2.391225
  34        2.391225
  35        2.836354
  36        2.836354
  37        2.946703
  38        2.946703
  39        3.670405
  40        3.670405
  41        4.036650
  42        4.036650
  43        4.757793
  44        4.757793
  45        5.175040
  46        5.175040
  47        5.346580
  48        5.346580
  49        8.836107
  50        8.836107
  51       10.730172
  52       10.730172
  53       11.048805
  54       11.048805
  55       11.799144
  56       11.800135
 
 -0.1287500E+00  0.1287500E+00  0.5000000E+00  0.2272727E-01
   1      -65.352458
   2      -65.352458
   3      -65.308935
   4      -65.308935
   5      -65.297818
   6      -65.297818
   7      -48.370565
   8      -48.370565
   9      -48.369820
  10      -48.369820
  11      -48.360843
  12      -48.360843
  13       -8.826746
  14       -8.826746
  15       -8.745984
  16       -8.745984
  17       -1.165155
  18       -1.165155
  19       -0.770710
  20       -0.770710
  21        0.113633
  22        0.113633
  23        0.400327
  24        0.400327
  25        0.431528
  26        0.431528
  27        0.567296
  28        0.567296
  29        1.825371
  30        1.825371
  31        1.990893
  32        1.990893
  33        2.414837
  34        2.414837
  35        2.795726
  36        2.795726
  37        2.959827
  38        2.959827
  39        3.669782
  40        3.669782
  41        3.987399
  42        3.987399
  43        4.741932
  44        4.741932
  45        5.151778
  46        5.151778
  47        5.278605
  48        5.278605
  49        8.949372
  50        8.949372
  51       10.663036
  52       10.663036
  53       11.067532
  54       11.067533
  55       11.617094
  56       11.617147
 
 -0.1287500E+00  0.1287500E+00  0.5000000E+00  0.2272727E-01
   1      -65.352458
   2      -65.352458
   3      -65.308935
   4      -65.308935
   5      -65.297818
   6      -65.297818
   7      -48.370565
   8      -48.370565
   9      -48.369820
  10      -48.369820
  11      -48.360843
  12      -48.360843
  13       -8.826746
  14       -8.826746
  15       -8.745984
  16       -8.745984
  17       -1.165155
  18       -1.165155
  19       -0.770710
  20       -0.770710
  21        0.113633
  22        0.113633
  23        0.400327
  24        0.400327
  25        0.431528
  26        0.431528
  27        0.567296
  28        0.567296
  29        1.825371
  30        1.825371
  31        1.990893
  32        1.990893
  33        2.414837
  34        2.414837
  35        2.795726
  36        2.795726
  37        2.959827
  38        2.959827
  39        3.669782
  40        3.669782
  41        3.987399
  42        3.987399
  43        4.741932
  44        4.741932
  45        5.151778
  46        5.151778
  47        5.278605
  48        5.278605
  49        8.949372
  50        8.949372
  51       10.663036
  52       10.663036
  53       11.067532
  54       11.067533
  55       11.617077
  56       11.617213
 
 -0.1906233E+00  0.1906233E+00  0.4381233E+00  0.2272727E-01
   1      -65.364038
   2      -65.362797
   3      -65.332517
   4      -65.318213
   5      -65.309069
   6      -65.308237
   7      -48.370849
   8      -48.370645
   9      -48.369861
  10      -48.369598
  11      -48.361131
  12      -48.360701
  13       -8.878885
  14       -8.876486
  15       -8.819134
  16       -8.590788
  17       -1.011248
  18       -1.003631
  19       -0.820841
  20       -0.804988
  21        0.060645
  22        0.264669
  23        0.317668
  24        0.379119
  25        0.432964
  26        0.482612
  27        0.553428
  28        0.617590
  29        1.810658
  30        1.834888
  31        1.921154
  32        1.994859
  33        2.349910
  34        2.445901
  35        2.649169
  36        2.794772
  37        2.951343
  38        3.076348
  39        3.646046
  40        3.690397
  41        3.821723
  42        4.083065
  43        4.545006
  44        4.720734
  45        4.923234
  46        5.076794
  47        5.255865
  48        5.310521
  49        9.266189
  50        9.281180
  51        9.811113
  52       10.331162
  53       10.849051
  54       11.302099
  55       11.590442
  56       11.679265
 
 -0.2524967E+00  0.2524967E+00  0.3762467E+00  0.2272727E-01
   1      -65.370328
   2      -65.363407
   3      -65.327670
   4      -65.326828
   5      -65.306979
   6      -65.301444
   7      -48.370905
   8      -48.370651
   9      -48.369793
  10      -48.369437
  11      -48.361286
  12      -48.360621
  13       -8.916774
  14       -8.912059
  15       -8.867340
  16       -8.484498
  17       -0.915805
  18       -0.864986
  19       -0.760666
  20       -0.758752
  21        0.028308
  22        0.196192
  23        0.205507
  24        0.409780
  25        0.456954
  26        0.542079
  27        0.587585
  28        0.668347
  29        1.798811
  30        1.828526
  31        1.890468
  32        2.006651
  33        2.211245
  34        2.409857
  35        2.595615
  36        2.724206
  37        3.071430
  38        3.115187
  39        3.598219
  40        3.739338
  41        3.835018
  42        4.192257
  43        4.404542
  44        4.521483
  45        4.694223
  46        4.914274
  47        5.315633
  48        5.400786
  49        9.149172
  50        9.718057
  51        9.802634
  52       10.112330
  53       10.561757
  54       11.213699
  55       11.419738
  56       11.547576
 
 -0.3143700E+00  0.3143700E+00  0.3143700E+00  0.2272727E-01
   1      -65.365564
   2      -65.356306
   3      -65.322643
   4      -65.322570
   5      -65.315514
   6      -65.304921
   7      -48.370886
   8      -48.370689
   9      -48.369807
  10      -48.369345
  11      -48.361310
  12      -48.360555
  13       -8.930719
  14       -8.924906
  15       -8.884006
  16       -8.446700
  17       -0.911004
  18       -0.843365
  19       -0.685838
  20       -0.678920
  21        0.018261
  22        0.139496
  23        0.140204
  24        0.421867
  25        0.466211
  26        0.543609
  27        0.636267
  28        0.688826
  29        1.787340
  30        1.814869
  31        1.900109
  32        2.024422
  33        2.120942
  34        2.396904
  35        2.572821
  36        2.701990
  37        3.072746
  38        3.166247
  39        3.582701
  40        3.793365
  41        3.875235
  42        4.258833
  43        4.285287
  44        4.515451
  45        4.525860
  46        4.848371
  47        5.337516
  48        5.445026
  49        8.910308
  50        9.897937
  51       10.030599
  52       10.131706
  53       10.621267
  54       11.146296
  55       11.335161
  56       11.455408
 
 -0.3143700E+00  0.3143700E+00  0.3143700E+00  0.2272727E-01
   1      -65.365564
   2      -65.356306
   3      -65.322643
   4      -65.322570
   5      -65.315514
   6      -65.304921
   7      -48.370886
   8      -48.370689
   9      -48.369807
  10      -48.369345
  11      -48.361310
  12      -48.360555
  13       -8.930719
  14       -8.924906
  15       -8.884006
  16       -8.446700
  17       -0.911004
  18       -0.843365
  19       -0.685838
  20       -0.678920
  21        0.018261
  22        0.139496
  23        0.140204
  24        0.421867
  25        0.466211
  26        0.543609
  27        0.636267
  28        0.688826
  29        1.787340
  30        1.814869
  31        1.900109
  32        2.024422
  33        2.120942
  34        2.396904
  35        2.572821
  36        2.701990
  37        3.072746
  38        3.166247
  39        3.582701
  40        3.793365
  41        3.875235
  42        4.258833
  43        4.285287
  44        4.515451
  45        4.525860
  46        4.848371
  47        5.337516
  48        5.445026
  49        8.910308
  50        9.897937
  51       10.030599
  52       10.131706
  53       10.621267
  54       11.146292
  55       11.335221
  56       11.454983
 
 -0.2095800E+00  0.2095800E+00  0.2095800E+00  0.2272727E-01
   1      -65.362746
   2      -65.360619
   3      -65.329329
   4      -65.326075
   5      -65.311674
   6      -65.295562
   7      -48.370875
   8      -48.370229
   9      -48.370166
  10      -48.369481
  11      -48.361794
  12      -48.360148
  13       -9.295070
  14       -8.706683
  15       -8.706458
  16       -8.437154
  17       -0.734669
  18       -0.715487
  19       -0.603088
  20       -0.383754
  21       -0.207231
  22       -0.122880
  23       -0.120199
  24        0.336921
  25        0.413596
  26        0.539824
  27        0.625739
  28        0.676956
  29        1.778841
  30        1.839027
  31        1.910686
  32        2.079384
  33        2.109054
  34        2.227413
  35        2.380513
  36        2.691528
  37        2.897904
  38        3.203282
  39        3.675999
  40        3.700203
  41        3.785605
  42        4.016371
  43        4.401872
  44        4.667654
  45        4.827344
  46        5.225799
  47        5.225869
  48        5.467080
  49        9.050599
  50       10.108797
  51       10.209522
  52       10.328589
  53       10.596641
  54       11.009823
  55       11.608204
  56       11.954618
 
 -0.1047900E+00  0.1047900E+00  0.1047900E+00  0.2272727E-01
   1      -65.364064
   2      -65.355131
   3      -65.335073
   4      -65.325687
   5      -65.315376
   6      -65.314562
   7      -48.370816
   8      -48.370663
   9      -48.369693
  10      -48.369523
  11      -48.362215
  12      -48.359831
  13       -9.602477
  14       -8.523637
  15       -8.523424
  16       -8.433327
  17       -1.112371
  18       -0.559064
  19       -0.544896
  20       -0.349231
  21       -0.345360
  22        0.061737
  23        0.262767
  24        0.322832
  25        0.399194
  26        0.609871
  27        0.699317
  28        0.706385
  29        1.759767
  30        1.839888
  31        1.960893
  32        2.089255
  33        2.129861
  34        2.153075
  35        2.194061
  36        2.693621
  37        2.752545
  38        2.992660
  39        3.428422
  40        3.783030
  41        3.784826
  42        3.884280
  43        4.090275
  44        4.513416
  45        4.520367
  46        5.673248
  47        5.825581
  48        5.928637
  49        8.053837
  50        9.017761
  51       10.105335
  52       10.557524
  53       10.565774
  54       10.971532
  55       11.755452
  56       11.786939
 
  0.0000000E+00  0.0000000E+00  0.0000000E+00  0.2272727E-01
   1      -65.350854
   2      -65.347142
   3      -65.346091
   4      -65.306026
   5      -65.289621
   6      -65.288879
   7      -48.370878
   8      -48.370852
   9      -48.369417
  10      -48.369390
  11      -48.362292
  12      -48.359449
  13       -9.715215
  14       -8.452618
  15       -8.452618
  16       -8.433243
  17       -1.277545
  18       -0.438942
  19       -0.438478
  20       -0.437959
  21       -0.423932
  22        0.248737
  23        0.248974
  24        0.304806
  25        0.633659
  26        0.633854
  27        0.755195
  28        0.755215
  29        1.723781
  30        1.854075
  31        2.017558
  32        2.084407
  33        2.113664
  34        2.113937
  35        2.154795
  36        2.711130
  37        2.711153
  38        2.777490
  39        3.265054
  40        3.695656
  41        3.778806
  42        3.993123
  43        3.993174
  44        4.352724
  45        4.369025
  46        6.134774
  47        6.134858
  48        6.220198
  49        7.254042
  50        8.480676
  51        9.668472
  52       10.583342
  53       10.583392
  54       11.544773
  55       11.551255
  56       11.551459
 
  0.0000000E+00  0.0000000E+00  0.0000000E+00  0.2272727E-01
   1      -65.350854
   2      -65.347142
   3      -65.346091
   4      -65.306026
   5      -65.289621
   6      -65.288879
   7      -48.370878
   8      -48.370852
   9      -48.369417
  10      -48.369390
  11      -48.362292
  12      -48.359449
  13       -9.715215
  14       -8.452618
  15       -8.452618
  16       -8.433243
  17       -1.277545
  18       -0.438942
  19       -0.438478
  20       -0.437959
  21       -0.423932
  22        0.248737
  23        0.248974
  24        0.304805
  25        0.633659
  26        0.633854
  27        0.755195
  28        0.755215
  29        1.723781
  30        1.854075
  31        2.017558
  32        2.084407
  33        2.113664
  34        2.113937
  35        2.154795
  36        2.711130
  37        2.711153
  38        2.777490
  39        3.265054
  40        3.695656
  41        3.778806
  42        3.993123
  43        3.993174
  44        4.352724
  45        4.369025
  46        6.134774
  47        6.134858
  48        6.220198
  49        7.254042
  50        8.480676
  51        9.668472
  52       10.583342
  53       10.583392
  54       11.544780
  55       11.551259
  56       11.551458
 
  0.1666667E+00  0.1666667E+00 -0.1666667E+00  0.2272727E-01
   1      -65.359222
   2      -65.349729
   3      -65.339628
   4      -65.338804
   5      -65.317428
   6      -65.316694
   7      -48.370878
   8      -48.370858
   9      -48.369508
  10      -48.369487
  11      -48.362109
  12      -48.359886
  13       -9.641355
  14       -8.534388
  15       -8.454606
  16       -8.454606
  17       -1.198030
  18       -0.913425
  19       -0.893159
  20        0.068287
  21        0.106729
  22        0.210277
  23        0.253019
  24        0.253281
  25        0.588927
  26        0.589139
  27        0.768477
  28        0.768494
  29        1.753628
  30        1.823087
  31        1.978983
  32        2.026117
  33        2.144152
  34        2.144357
  35        2.322478
  36        2.765941
  37        2.765947
  38        2.804566
  39        3.318041
  40        3.667081
  41        3.909561
  42        4.087440
  43        4.087484
  44        4.245778
  45        4.329457
  46        5.869149
  47        5.919486
  48        5.919570
  49        7.841548
  50        8.552344
  51        9.759532
  52        9.860279
  53        9.860302
  54       10.996814
  55       11.189259
  56       11.369737
 
  0.3333333E+00  0.3333333E+00 -0.3333333E+00  0.2272727E-01
   1      -65.374757
   2      -65.362491
   3      -65.347734
   4      -65.346994
   5      -65.324261
   6      -65.323520
   7      -48.371012
   8      -48.371001
   9      -48.369408
  10      -48.369396
  11      -48.361758
  12      -48.360270
  13       -9.432352
  14       -8.796954
  15       -8.458518
  16       -8.458518
  17       -1.242508
  18       -1.228624
  19       -0.911522
  20       -0.156964
  21        0.297374
  22        0.297638
  23        0.483803
  24        0.484042
  25        0.543218
  26        0.559056
  27        0.798558
  28        0.798566
  29        1.788049
  30        1.794323
  31        1.925864
  32        2.017707
  33        2.202531
  34        2.202621
  35        2.584584
  36        2.897457
  37        2.901724
  38        2.901747
  39        3.435831
  40        3.608649
  41        3.952581
  42        3.968167
  43        4.367773
  44        4.367785
  45        4.502011
  46        5.424404
  47        5.429754
  48        5.429827
  49        8.766523
  50        8.789199
  51        8.946401
  52        8.946414
  53        9.824999
  54       10.118074
  55       10.494526
  56       10.737566
 
  0.5000000E+00  0.5000000E+00 -0.5000000E+00  0.2272727E-01
   1      -65.392102
   2      -65.392102
   3      -65.337204
   4      -65.337204
   5      -65.325740
   6      -65.325740
   7      -48.370985
   8      -48.370985
   9      -48.369358
  10      -48.369358
  11      -48.361125
  12      -48.361125
  13       -9.127807
  14       -9.127807
  15       -8.460490
  16       -8.460490
  17       -1.340255
  18       -1.340255
  19       -0.554478
  20       -0.554478
  21        0.370156
  22        0.370156
  23        0.384390
  24        0.384390
  25        0.716611
  26        0.716611
  27        0.812880
  28        0.812880
  29        1.778994
  30        1.778994
  31        1.984581
  32        1.984581
  33        2.223604
  34        2.223604
  35        2.866871
  36        2.866871
  37        2.977550
  38        2.977550
  39        3.594491
  40        3.594491
  41        3.749885
  42        3.749885
  43        4.719633
  44        4.719633
  45        4.977083
  46        4.977083
  47        4.978807
  48        4.978807
  49        8.583424
  50        8.583424
  51        9.131227
  52        9.131227
  53        9.653797
  54        9.653797
  55       10.501250
  56       10.501250
 
  0.5000000E+00  0.5000000E+00 -0.5000000E+00  0.2272727E-01
   1      -65.392102
   2      -65.392102
   3      -65.337204
   4      -65.337204
   5      -65.325740
   6      -65.325740
   7      -48.370985
   8      -48.370985
   9      -48.369358
  10      -48.369358
  11      -48.361125
  12      -48.361125
  13       -9.127807
  14       -9.127807
  15       -8.460490
  16       -8.460490
  17       -1.340255
  18       -1.340255
  19       -0.554478
  20       -0.554478
  21        0.370156
  22        0.370156
  23        0.384390
  24        0.384390
  25        0.716611
  26        0.716611
  27        0.812880
  28        0.812880
  29        1.778994
  30        1.778994
  31        1.984581
  32        1.984581
  33        2.223604
  34        2.223604
  35        2.866871
  36        2.866871
  37        2.977550
  38        2.977550
  39        3.594491
  40        3.594491
  41        3.749885
  42        3.749885
  43        4.719633
  44        4.719633
  45        4.977083
  46        4.977083
  47        4.978807
  48        4.978807
  49        8.583424
  50        8.583424
  51        9.131227
  52        9.131227
  53        9.653797
  54        9.653797
  55       10.501250
  56       10.501250
 
  0.4381233E+00  0.5618767E+00 -0.4381233E+00  0.2272727E-01
   1      -65.386205
   2      -65.380496
   3      -65.338010
   4      -65.336880
   5      -65.330129
   6      -65.323532
   7      -48.371011
   8      -48.370943
   9      -48.369385
  10      -48.369350
  11      -48.361107
  12      -48.360966
  13       -9.103098
  14       -9.103022
  15       -8.516314
  16       -8.458528
  17       -1.287252
  18       -1.281883
  19       -0.578099
  20       -0.577396
  21        0.338494
  22        0.354120
  23        0.378590
  24        0.397392
  25        0.687146
  26        0.710973
  27        0.712754
  28        0.785220
  29        1.789941
  30        1.807590
  31        1.904291
  32        1.984129
  33        2.203674
  34        2.324420
  35        2.791654
  36        2.863297
  37        2.941255
  38        3.016588
  39        3.602311
  40        3.722990
  41        3.766243
  42        3.791371
  43        4.582890
  44        4.636171
  45        4.772217
  46        4.915533
  47        5.117436
  48        5.189033
  49        8.609141
  50        8.779290
  51        9.337919
  52        9.339387
  53        9.731549
  54        9.807405
  55       10.603732
  56       10.649446
 
  0.3762467E+00  0.6237533E+00 -0.3762467E+00  0.2272727E-01
   1      -65.375915
   2      -65.362143
   3      -65.326438
   4      -65.324030
   5      -65.313485
   6      -65.312029
   7      -48.370883
   8      -48.370805
   9      -48.369516
  10      -48.369315
  11      -48.361110
  12      -48.360818
  13       -9.032473
  14       -9.032059
  15       -8.670328
  16       -8.453371
  17       -1.135013
  18       -1.110329
  19       -0.634877
  20       -0.632462
  21        0.248559
  22        0.267162
  23        0.359349
  24        0.429378
  25        0.472971
  26        0.619976
  27        0.702918
  28        0.714051
  29        1.801071
  30        1.831442
  31        1.870199
  32        2.001883
  33        2.158807
  34        2.473876
  35        2.564651
  36        2.818900
  37        3.051819
  38        3.082008
  39        3.579594
  40        3.757274
  41        3.859830
  42        4.047717
  43        4.430183
  44        4.463723
  45        4.587566
  46        4.831711
  47        5.283384
  48        5.365400
  49        8.715802
  50        9.316148
  51        9.704678
  52        9.775831
  53       10.085742
  54       10.303143
  55       10.905013
  56       11.086487
 
  0.3143700E+00  0.6856300E+00 -0.3143700E+00  0.2272727E-01
   1      -65.365564
   2      -65.356306
   3      -65.322643
   4      -65.322570
   5      -65.315514
   6      -65.304921
   7      -48.370886
   8      -48.370689
   9      -48.369807
  10      -48.369345
  11      -48.361310
  12      -48.360555
  13       -8.930719
  14       -8.924906
  15       -8.884006
  16       -8.446700
  17       -0.911004
  18       -0.843365
  19       -0.685838
  20       -0.678920
  21        0.018261
  22        0.139496
  23        0.140204
  24        0.421867
  25        0.466211
  26        0.543609
  27        0.636267
  28        0.688826
  29        1.787340
  30        1.814869
  31        1.900109
  32        2.024422
  33        2.120942
  34        2.396904
  35        2.572821
  36        2.701990
  37        3.072746
  38        3.166247
  39        3.582701
  40        3.793365
  41        3.875235
  42        4.258833
  43        4.285287
  44        4.515451
  45        4.525860
  46        4.848371
  47        5.337516
  48        5.445026
  49        8.910308
  50        9.897937
  51       10.030599
  52       10.131706
  53       10.621267
  54       11.146294
  55       11.335260
  56       11.455805
 
  0.3143700E+00  0.6856300E+00 -0.3143700E+00  0.2272727E-01