       N       E                     dE             d eps       ncg     rms          rms(c)
DAV:   1     0.769894475748E+03    0.76989E+03   -0.38584E+04  5928   0.123E+03
DAV:   2     0.181466565706E+02   -0.75175E+03   -0.72130E+03  5016   0.422E+02
DAV:   3    -0.448233665307E+02   -0.62970E+02   -0.60177E+02  5848   0.128E+02
DAV:   4    -0.480831769746E+02   -0.32598E+01   -0.32234E+01  6064   0.293E+01
DAV:   5    -0.482235761989E+02   -0.14040E+00   -0.14027E+00  6808   0.640E+00    0.210E+01
DAV:   6    -0.536506490028E+02   -0.54271E+01   -0.94084E+01  5952   0.887E+01    0.332E+01
DAV:   7    -0.450590200112E+02    0.85916E+01   -0.44074E+01  6416   0.870E+01    0.167E+01
DAV:   8    -0.421549726071E+02    0.29040E+01   -0.80182E+00  6632   0.329E+01    0.552E+00
DAV:   9    -0.423656043482E+02   -0.21063E+00   -0.26591E+00  7056   0.164E+01    0.676E+00
DAV:  10    -0.421612818905E+02    0.20432E+00   -0.17607E+00  7000   0.175E+01    0.230E+00
DAV:  11    -0.421212802361E+02    0.40002E-01   -0.91527E-02  6744   0.327E+00    0.103E+00
DAV:  12    -0.421109589802E+02    0.10321E-01   -0.14118E-02  6920   0.163E+00    0.377E-01
DAV:  13    -0.421106658173E+02    0.29316E-03   -0.67670E-03  6584   0.603E-01    0.574E-02
DAV:  14    -0.421107920055E+02   -0.12619E-03   -0.10106E-03  4792   0.279E-01    0.628E-02
DAV:  15    -0.421108422433E+02   -0.50238E-04   -0.50158E-04  4744   0.315E-01
   1 F= -.42110842E+02 E0= -.42032373E+02  d E =-.156938E+00
