<?xml version="1.0" encoding="ISO-8859-1"?>
<modeling>
 <generator>
  <i name="program" type="string">vasp </i>
  <i name="version" type="string">5.2.12  </i>
  <i name="subversion" type="string">11Nov11 complex                                                      parallel </i>
  <i name="platform" type="string">LinuxIFC </i>
  <i name="date" type="string">2020 04 26 </i>
  <i name="time" type="string">19:39:53 </i>
 </generator>
 <incar>
  <i type="int" name="ISTART">     0</i>
  <i type="string" name="PREC">normal</i>
  <i type="int" name="ICHARG">     2</i>
  <i type="int" name="NELM">    40</i>
  <i type="int" name="NELMIN">     2</i>
  <i name="EDIFF">      0.00010000</i>
  <i name="ENCUT">    300.00000000</i>
  <i type="logical" name="LREAL"> F  </i>
  <i type="int" name="ISMEAR">     0</i>
  <i type="int" name="NELM">    40</i>
 </incar>
 <kpoints>
  <generation param="listgenerated">
   <i name="divisions" type="int">       4 </i>
   <v>       0.00000000       0.00000000       0.00000000 </v>
   <v>       0.00000000       0.00000000       0.50000000 </v>
   <v>      -0.12875000       0.12875000       0.50000000 </v>
   <v>      -0.31437000       0.31437000       0.31437000 </v>
   <v>       0.00000000       0.00000000       0.00000000 </v>
   <v>       0.50000000       0.50000000      -0.50000000 </v>
   <v>       0.31437000       0.68563000      -0.31437000 </v>
   <v>       0.00000000       0.50000000       0.00000000 </v>
   <v>       0.25000000       0.25000000       0.25000000 </v>
   <v>       0.50000000       0.50000000      -0.12875000 </v>
   <v>       0.00000000       0.00000000       0.50000000 </v>
   <v>       0.25000000       0.25000000       0.25000000 </v>
  </generation>
  <varray name="kpointlist" >
   <v>       0.00000000       0.00000000       0.00000000 </v>
   <v>       0.00000000       0.00000000       0.16666667 </v>
   <v>       0.00000000       0.00000000       0.33333333 </v>
   <v>       0.00000000       0.00000000       0.50000000 </v>
   <v>       0.00000000       0.00000000       0.50000000 </v>
   <v>      -0.04291667       0.04291667       0.50000000 </v>
   <v>      -0.08583333       0.08583333       0.50000000 </v>
   <v>      -0.12875000       0.12875000       0.50000000 </v>
   <v>      -0.12875000       0.12875000       0.50000000 </v>
   <v>      -0.19062333       0.19062333       0.43812333 </v>
   <v>      -0.25249667       0.25249667       0.37624667 </v>
   <v>      -0.31437000       0.31437000       0.31437000 </v>
   <v>      -0.31437000       0.31437000       0.31437000 </v>
   <v>      -0.20958000       0.20958000       0.20958000 </v>
   <v>      -0.10479000       0.10479000       0.10479000 </v>
   <v>       0.00000000       0.00000000       0.00000000 </v>
   <v>       0.00000000       0.00000000       0.00000000 </v>
   <v>       0.16666667       0.16666667      -0.16666667 </v>
   <v>       0.33333333       0.33333333      -0.33333333 </v>
   <v>       0.50000000       0.50000000      -0.50000000 </v>
   <v>       0.50000000       0.50000000      -0.50000000 </v>
   <v>       0.43812333       0.56187667      -0.43812333 </v>
   <v>       0.37624667       0.62375333      -0.37624667 </v>
   <v>       0.31437000       0.68563000      -0.31437000 </v>
   <v>       0.31437000       0.68563000      -0.31437000 </v>
   <v>       0.20958000       0.62375333      -0.20958000 </v>
   <v>       0.10479000       0.56187667      -0.10479000 </v>
   <v>       0.00000000       0.50000000       0.00000000 </v>
   <v>       0.00000000       0.50000000       0.00000000 </v>
   <v>       0.08333333       0.41666667       0.08333333 </v>
   <v>       0.16666667       0.33333333       0.16666667 </v>
   <v>       0.25000000       0.25000000       0.25000000 </v>
   <v>       0.25000000       0.25000000       0.25000000 </v>
   <v>       0.33333333       0.33333333       0.12375000 </v>
   <v>       0.41666667       0.41666667      -0.00250000 </v>
   <v>       0.50000000       0.50000000      -0.12875000 </v>
   <v>       0.50000000       0.50000000      -0.12875000 </v>
   <v>       0.50000000       0.50000000      -0.25250000 </v>
   <v>       0.50000000       0.50000000      -0.37625000 </v>
   <v>       0.50000000       0.50000000      -0.50000000 </v>
   <v>       0.00000000       0.00000000       0.50000000 </v>
   <v>       0.08333333       0.08333333       0.41666667 </v>
   <v>       0.16666667       0.16666667       0.33333333 </v>
   <v>       0.25000000       0.25000000       0.25000000 </v>
  </varray>
  <varray name="weights" >
   <v>       0.02272727 </v>
   <v>       0.02272727 </v>
   <v>       0.02272727 </v>
   <v>       0.02272727 </v>
   <v>       0.02272727 </v>
   <v>       0.02272727 </v>
   <v>       0.02272727 </v>
   <v>       0.02272727 </v>
   <v>       0.02272727 </v>
   <v>       0.02272727 </v>
   <v>       0.02272727 </v>
   <v>       0.02272727 </v>
   <v>       0.02272727 </v>
   <v>       0.02272727 </v>
   <v>       0.02272727 </v>
   <v>       0.02272727 </v>
   <v>       0.02272727 </v>
   <v>       0.02272727 </v>
   <v>       0.02272727 </v>
   <v>       0.02272727 </v>
   <v>       0.02272727 </v>
   <v>       0.02272727 </v>
   <v>       0.02272727 </v>
   <v>       0.02272727 </v>
   <v>       0.02272727 </v>
   <v>       0.02272727 </v>
   <v>       0.02272727 </v>
   <v>       0.02272727 </v>
   <v>       0.02272727 </v>
   <v>       0.02272727 </v>
   <v>       0.02272727 </v>
   <v>       0.02272727 </v>
   <v>       0.02272727 </v>
   <v>       0.02272727 </v>
   <v>       0.02272727 </v>
   <v>       0.02272727 </v>
   <v>       0.02272727 </v>
   <v>       0.02272727 </v>
   <v>       0.02272727 </v>
   <v>       0.02272727 </v>
   <v>       0.02272727 </v>
   <v>       0.02272727 </v>
   <v>       0.02272727 </v>
   <v>       0.02272727 </v>
  </varray>
 </kpoints>
 <parameters>
  <separator name="general" >
   <i type="string" name="SYSTEM">unknown system</i>
   <i type="logical" name="LCOMPAT"> F  </i>
  </separator>
  <separator name="electronic" >
   <i type="string" name="PREC">normal</i>
   <i name="ENMAX">    300.00000000</i>
   <i name="ENAUG">    758.23300000</i>
   <i name="EDIFF">      0.00010000</i>
   <i type="int" name="IALGO">    38</i>
   <i type="int" name="IWAVPR">    10</i>
   <i type="int" name="NBANDS">    56</i>
   <i name="NELECT">     86.00000000</i>
   <i type="int" name="TURBO">     0</i>
   <i type="int" name="IRESTART">     0</i>
   <i type="int" name="NREBOOT">     0</i>
   <i type="int" name="NMIN">     0</i>
   <i name="EREF">      0.00000000</i>
   <separator name="electronic smearing" >
    <i type="int" name="ISMEAR">     0</i>
    <i name="SIGMA">      0.20000000</i>
    <i name="KSPACING">      0.50000000</i>
    <i type="logical" name="KGAMMA"> T  </i>
   </separator>
   <separator name="electronic projectors" >
    <i type="logical" name="LREAL"> F  </i>
    <v name="ROPT">      0.00000000      0.00000000      0.00000000</v>
    <i type="int" name="LMAXPAW">  -100</i>
    <i type="int" name="LMAXMIX">     2</i>
    <i type="logical" name="NLSPLINE"> F  </i>
   </separator>
   <separator name="electronic startup" >
    <i type="int" name="ISTART">     0</i>
    <i type="int" name="ICHARG">     2</i>
    <i type="int" name="INIWAV">     1</i>
   </separator>
   <separator name="electronic spin" >
    <i type="int" name="ISPIN">     1</i>
    <i type="logical" name="LNONCOLLINEAR"> F  </i>
    <v name="MAGMOM">      1.00000000      1.00000000      1.00000000      1.00000000      1.00000000      1.00000000      1.00000000      1.00000000</v>
    <i name="NUPDOWN">     -1.00000000</i>
    <i type="logical" name="LSORBIT"> F  </i>
    <v name="SAXIS">      0.00000000      0.00000000      1.00000000</v>
    <i type="logical" name="LSPIRAL"> F  </i>
    <v name="QSPIRAL">      0.00000000      0.00000000      0.00000000</v>
    <i type="logical" name="LZEROZ"> F  </i>
   </separator>
   <separator name="electronic exchange-correlation" >
    <i type="logical" name="LASPH"> F  </i>
    <i type="logical" name="LMETAGGA"> F  </i>
   </separator>
   <separator name="electronic convergence" >
    <i type="int" name="NELM">    40</i>
    <i type="int" name="NELMDL">    -5</i>
    <i type="int" name="NELMIN">     2</i>
    <i name="ENINI">    300.00000000</i>
    <separator name="electronic convergence detail" >
     <i type="logical" name="LDIAG"> T  </i>
     <i type="logical" name="LSUBROT"> T  </i>
     <i name="WEIMIN">      0.00000000</i>
     <i name="EBREAK">      0.00000045</i>
     <i name="DEPER">      0.30000000</i>
     <i type="int" name="NRMM">     4</i>
     <i name="TIME">      0.40000000</i>
    </separator>
   </separator>
   <separator name="electronic mixer" >
    <i name="AMIX">      0.40000000</i>
    <i name="BMIX">      1.00000000</i>
    <i name="AMIN">      0.10000000</i>
    <i name="AMIX_MAG">      1.60000000</i>
    <i name="BMIX_MAG">      1.00000000</i>
    <separator name="electronic mixer details" >
     <i type="int" name="IMIX">     4</i>
     <i type="int" name="MAXMIX">   -45</i>
     <i name="WC">    100.00000000</i>
     <i type="int" name="INIMIX">     1</i>
     <i type="int" name="MIXPRE">     1</i>
     <i type="int" name="MREMOVE">     5</i>
    </separator>
   </separator>
   <separator name="electronic dipolcorrection" >
    <i type="logical" name="LDIPOL"> F  </i>
    <i type="logical" name="LMONO"> F  </i>
    <i type="int" name="IDIPOL">     0</i>
    <i name="EPSILON">      1.00000000</i>
    <v name="DIPOL">   -100.00000000   -100.00000000   -100.00000000</v>
    <i name="EFIELD">      0.00000000</i>
   </separator>
  </separator>
  <separator name="grids" >
   <i type="int" name="NGX">    28</i>
   <i type="int" name="NGY">    28</i>
   <i type="int" name="NGZ">    28</i>
   <i type="int" name="NGXF">    56</i>
   <i type="int" name="NGYF">    56</i>
   <i type="int" name="NGZF">    56</i>
   <i type="logical" name="ADDGRID"> F  </i>
  </separator>
  <separator name="ionic" >
   <i type="int" name="NSW">     0</i>
   <i type="int" name="IBRION">    -1</i>
   <i type="int" name="ISIF">     2</i>
   <i name="PSTRESS">      0.00000000</i>
   <i name="EDIFFG">      0.00100000</i>
   <i type="int" name="NFREE">     0</i>
   <i name="POTIM">      0.50000000</i>
   <i name="SMASS">     -3.00000000</i>
   <i name="SCALEE">      1.00000000</i>
  </separator>
  <separator name="ionic md" >
   <i name="TEBEG">      0.00010000</i>
   <i name="TEEND">      0.00010000</i>
   <i type="int" name="NBLOCK">     1</i>
   <i type="int" name="KBLOCK">     1</i>
   <i type="int" name="NPACO">   256</i>
   <i name="APACO">     16.00000000</i>
  </separator>
  <separator name="symmetry" >
   <i type="int" name="ISYM">     2</i>
   <i name="SYMPREC">      0.00001000</i>
  </separator>
  <separator name="dos" >
   <i type="logical" name="LORBIT"> F  </i>
   <v name="RWIGS">     -1.00000000     -1.00000000     -1.00000000</v>
   <i type="int" name="NEDOS">   301</i>
   <i name="EMIN">     10.00000000</i>
   <i name="EMAX">    -10.00000000</i>
   <i name="EFERMI">      0.00000000</i>
  </separator>
  <separator name="writing" >
   <i type="int" name="NWRITE">     2</i>
   <i type="logical" name="LWAVE"> T  </i>
   <i type="logical" name="LCHARG"> T  </i>
   <i type="logical" name="LPARD"> F  </i>
   <i type="logical" name="LVTOT"> F  </i>
   <i type="logical" name="LVHAR"> F  </i>
   <i type="logical" name="LELF"> F  </i>
   <i type="logical" name="LOPTICS"> F  </i>
   <v name="STM">      0.00000000      0.00000000      0.00000000      0.00000000      0.00000000      0.00000000      0.00000000</v>
  </separator>
  <separator name="performance" >
   <i type="int" name="NPAR">     8</i>
   <i type="int" name="NSIM">     4</i>
   <i type="int" name="NBLK">    -1</i>
   <i type="logical" name="LPLANE"> T  </i>
   <i type="logical" name="LSCALAPACK"> F  </i>
   <i type="logical" name="LSCAAWARE"> F  </i>
   <i type="logical" name="LSCALU"> F  </i>
   <i type="logical" name="LASYNC"> F  </i>
   <i type="logical" name="LORBITALREAL"> F  </i>
  </separator>
  <separator name="miscellaneous" >
   <i type="int" name="IDIOT">     3</i>
   <i type="logical" name="LMUSIC"> F  </i>
   <v name="POMASS">     63.54600000     55.84700000     32.06600000</v>
   <v name="DARWINR">      0.00000000      0.00000000      0.00000000</v>
   <v name="DARWINV">      1.00000000      1.00000000      1.00000000</v>
   <i type="logical" name="LCORR"> T  </i>
  </separator>
  <i type="logical" name="GGA_COMPAT"> T  </i>
  <i type="logical" name="LBERRY"> F  </i>
  <i type="int" name="ICORELEVEL">     0</i>
  <i type="logical" name="LDAU"> F  </i>
  <i type="int" name="I_CONSTRAINED_M">     0</i>
  <separator name="electronic exchange-correlation" >
   <i type="string" name="GGA">--</i>
   <i type="int" name="VOSKOWN">     0</i>
   <i type="logical" name="LHFCALC"> F  </i>
   <i type="string" name="PRECFOCK"></i>
   <i type="logical" name="LHFONE"> F  </i>
   <i type="logical" name="LRHFCALC"> F  </i>
   <i type="logical" name="LTHOMAS"> F  </i>
   <i type="logical" name="LMODELHF"> F  </i>
   <i name="ENCUT4O">     -1.00000000</i>
   <i type="int" name="EXXOEP">     0</i>
   <i type="int" name="FOURORBIT">     0</i>
   <i name="AEXX">      0.00000000</i>
   <i name="HFALPHA">      0.00000000</i>
   <i name="ALDAX">      1.00000000</i>
   <i name="AGGAX">      1.00000000</i>
   <i name="ALDAC">      1.00000000</i>
   <i name="AGGAC">      1.00000000</i>
   <i type="int" name="NKREDX">     1</i>
   <i type="int" name="NKREDY">     1</i>
   <i type="int" name="NKREDZ">     1</i>
   <i type="logical" name="SHIFTRED"> F  </i>
   <i type="logical" name="ODDONLY"> F  </i>
   <i type="logical" name="EVENONLY"> F  </i>
   <i type="int" name="LMAXFOCK">     0</i>
   <i type="int" name="NMAXFOCKAE">     0</i>
   <i type="logical" name="LFOCKAEDFT"> F  </i>
   <i name="HFSCREEN">      0.00000000</i>
   <i name="HFSCREENC">      0.00000000</i>
  </separator>
  <separator name="vdW DFT" >
   <i type="logical" name="LUSE_VDW"> F  </i>
   <i name="Zab_VDW">     -0.84910000</i>
   <i name="PARAM1">      0.12340000</i>
   <i name="PARAM2">      1.00000000</i>
   <i name="PARAM3">      0.00000000</i>
  </separator>
  <separator name="model GW" >
   <i type="int" name="MODEL_GW">     0</i>
   <i name="MODEL_EPS0">     10.93380035</i>
   <i name="MODEL_ALPHA">      1.00000000</i>
  </separator>
  <separator name="linear response parameters" >
   <i type="logical" name="LEPSILON"> F  </i>
   <i type="logical" name="LRPA"> F  </i>
   <i type="logical" name="LNABLA"> F  </i>
   <i type="logical" name="LVEL"> F  </i>
   <i type="int" name="KINTER">     0</i>
   <i name="CSHIFT">      0.10000000</i>
   <i name="OMEGAMAX">     -1.00000000</i>
  </separator>
  <separator name="orbital magnetization" >
   <i type="logical" name="NUCIND"> F  </i>
   <v name="MAGPOS">      0.00000000      0.00000000      0.00000000</v>
   <i type="logical" name="LNICSALL"> T  </i>
   <i type="logical" name="ORBITALMAG"> F  </i>
   <i type="logical" name="LMAGBLOCH"> F  </i>
   <i type="logical" name="LCHIMAG"> F  </i>
   <i type="logical" name="LGAUGE"> T  </i>
   <i type="int" name="MAGATOM">     0</i>
   <v name="MAGDIPOL">      0.00000000      0.00000000      0.00000000</v>
   <v name="AVECCONST">      0.00000000      0.00000000      0.00000000</v>
  </separator>
  <separator name="response functions" >
   <i type="logical" name="LADDER"> F  </i>
   <i type="logical" name="LHARTREE"> T  </i>
   <i type="int" name="IBSE">     0</i>
   <i type="logical" name="LTCTE"> F  </i>
   <i type="logical" name="LTETE"> F  </i>
   <i type="logical" name="LFXCEPS"> F  </i>
   <i type="logical" name="L2ORDER"> F  </i>
   <i type="logical" name="LUSEW"> F  </i>
   <i name="ENCUTGW">     -2.00000000</i>
   <i name="ENCUTGWSOFT">     -2.00000000</i>
   <i name="ENCUTLF">     -1.00000000</i>
   <i type="int" name="LMAXMP2">    -1</i>
   <i name="SCISSOR">      0.00000000</i>
   <i type="int" name="NOMEGA">     0</i>
   <i type="int" name="NOMEGAR">     0</i>
   <i type="int" name="NBANDSGW">    -1</i>
   <i type="int" name="NBANDSO">    -1</i>
   <i type="int" name="NBANDSV">    -1</i>
   <i name="OPTEMAX">      0.00000000</i>
   <i type="int" name="NELM">    40</i>
   <i type="int" name="DIM">     3</i>
   <i type="int" name="ANTIRES">     0</i>
   <i name="OMEGAMAX">    -30.00000000</i>
   <i name="OMEGATL">   -200.00000000</i>
   <i type="int" name="OMEGAGRID">     0</i>
   <i name="CSHIFT">     -0.10000000</i>
   <i type="logical" name="SELFENERGY"> F  </i>
   <i type="logical" name="LSPECTRAL"> F  </i>
   <i type="logical" name="ODDONLYGW"> F  </i>
   <i type="logical" name="EVENONLYGW"> F  </i>
   <i type="int" name="NKREDLFX">     1</i>
   <i type="int" name="NKREDLFY">     1</i>
   <i type="int" name="NKREDLFZ">     1</i>
   <i type="int" name="MAXMEM">  1800</i>
   <i type="int" name="TELESCOPE">     0</i>
  </separator>
 </parameters>
 <atominfo>
  <atoms>       8 </atoms>
  <types>       3 </types>
  <array name="atoms" >
   <dimension dim="1">ion</dimension>
   <field type="string">element</field>
   <field type="int">atomtype</field>
   <set>
    <rc><c>Cu</c><c>   1</c></rc>
    <rc><c>Cu</c><c>   1</c></rc>
    <rc><c>Fe</c><c>   2</c></rc>
    <rc><c>Fe</c><c>   2</c></rc>
    <rc><c>S </c><c>   3</c></rc>
    <rc><c>S </c><c>   3</c></rc>
    <rc><c>S </c><c>   3</c></rc>
    <rc><c>S </c><c>   3</c></rc>
   </set>
  </array>
  <array name="atomtypes" >
   <dimension dim="1">type</dimension>
   <field type="int">atomspertype</field>
   <field type="string">element</field>
   <field>mass</field>
   <field>valence</field>
   <field type="string">pseudopotential</field>
   <set>
    <rc><c>   2</c><c>Cu</c><c>     63.54600000</c><c>     17.00000000</c><c> PAW_PBE Cu_pv 06Sep2000                </c></rc>
    <rc><c>   2</c><c>Fe</c><c>     55.84700000</c><c>     14.00000000</c><c> PAW_PBE Fe_pv 06Sep2000                </c></rc>
    <rc><c>   4</c><c>S </c><c>     32.06600000</c><c>      6.00000000</c><c> PAW_PBE S_h 08Apr2002                  </c></rc>
   </set>
  </array>
 </atominfo>
 <structure name="initialpos" >
  <crystal>
   <varray name="basis" >
    <v>      -2.64450000       2.64450000       5.21150000 </v>
    <v>       2.64450000      -2.64450000       5.21150000 </v>
    <v>       2.64450000       2.64450000      -5.21150000 </v>
   </varray>
   <i name="volume">    145.78400469 </i>
   <varray name="rec_basis" >
    <v>       0.00000000       0.18907166       0.09594167 </v>
    <v>       0.18907166       0.00000000       0.09594167 </v>
    <v>       0.18907166       0.18907166       0.00000000 </v>
   </varray>
  </crystal>
  <varray name="positions" >
   <v>       0.00000000       0.00000000       0.00000000 </v>
   <v>       0.75000000       0.25000000       0.50000000 </v>
   <v>       0.50000000       0.50000000       0.00000000 </v>
   <v>       0.25000000       0.75000000       0.50000000 </v>
   <v>       0.37500000       0.38240000       0.50740000 </v>
   <v>       0.87500000       0.86760000       0.49260000 </v>
   <v>       0.61760000       0.12500000       0.99260000 </v>
   <v>       0.13240000       0.62500000       0.00740000 </v>
  </varray>
 </structure>
 <calculation>
  <scstep>
   <time name="dav">    6.53    6.56</time>
   <time name="total">    6.58    6.62</time>
   <energy>
    <i name="alphaZ">    322.86500942 </i>
    <i name="ewald">  -7781.05210270 </i>
    <i name="hartreedc">  -5555.78653600 </i>
    <i name="XCdc">    366.06735913 </i>
    <i name="pawpsdc">  10340.37760101 </i>
    <i name="pawaedc"> -10762.93059522 </i>
    <i name="eentropy">     -0.07267905 </i>
    <i name="bandstr">   -416.46022208 </i>
    <i name="atom">  14256.88664124 </i>
    <i name="e_fr_energy">    769.89447575 </i>
    <i name="e_wo_entrp">    769.96715480 </i>
    <i name="e_0_energy">    769.93081527 </i>
   </energy>
  </scstep>
  <scstep>
   <time name="dav">    5.63    5.64</time>
   <time name="total">    5.64    5.64</time>
   <energy>
    <i name="e_fr_energy">     18.14665657 </i>
    <i name="e_wo_entrp">     18.28270813 </i>
    <i name="e_0_energy">     18.21468235 </i>
   </energy>
  </scstep>
  <scstep>
   <time name="dav">    6.36    6.37</time>
   <time name="total">    6.36    6.37</time>
   <energy>
    <i name="e_fr_energy">    -44.82336653 </i>
    <i name="e_wo_entrp">    -44.62724683 </i>
    <i name="e_0_energy">    -44.72530668 </i>
   </energy>
  </scstep>
  <scstep>
   <time name="dav">    6.54    6.55</time>
   <time name="total">    6.55    6.55</time>
   <energy>
    <i name="e_fr_energy">    -48.08317697 </i>
    <i name="e_wo_entrp">    -47.87798336 </i>
    <i name="e_0_energy">    -47.98058017 </i>
   </energy>
  </scstep>
  <scstep>
   <time name="dav">    7.19    7.20</time>
   <time name="total">    7.36    7.37</time>
   <energy>
    <i name="e_fr_energy">    -48.22357620 </i>
    <i name="e_wo_entrp">    -48.01811431 </i>
    <i name="e_0_energy">    -48.12084525 </i>
   </energy>
  </scstep>
  <scstep>
   <time name="dav">    6.50    6.53</time>
   <time name="total">    6.73    6.77</time>
   <energy>
    <i name="e_fr_energy">    -53.65064900 </i>
    <i name="e_wo_entrp">    -53.56046796 </i>
    <i name="e_0_energy">    -53.60555848 </i>
   </energy>
  </scstep>
  <scstep>
   <time name="dav">    6.84    6.85</time>
   <time name="total">    7.05    7.06</time>
   <energy>
    <i name="e_fr_energy">    -45.05902001 </i>
    <i name="e_wo_entrp">    -44.86771975 </i>
    <i name="e_0_energy">    -44.96336988 </i>
   </energy>
  </scstep>
  <scstep>
   <time name="dav">    7.03    7.03</time>
   <time name="total">    7.24    7.25</time>
   <energy>
    <i name="e_fr_energy">    -42.15497261 </i>
    <i name="e_wo_entrp">    -41.97108960 </i>
    <i name="e_0_energy">    -42.06303110 </i>
   </energy>
  </scstep>
  <scstep>
   <time name="dav">    7.40    7.40</time>
   <time name="total">    7.61    7.62</time>
   <energy>
    <i name="e_fr_energy">    -42.36560435 </i>
    <i name="e_wo_entrp">    -42.22130124 </i>
    <i name="e_0_energy">    -42.29345280 </i>
   </energy>
  </scstep>
  <scstep>
   <time name="dav">    7.41    7.45</time>
   <time name="total">    7.63    7.67</time>
   <energy>
    <i name="e_fr_energy">    -42.16128189 </i>
    <i name="e_wo_entrp">    -41.99631095 </i>
    <i name="e_0_energy">    -42.07879642 </i>
   </energy>
  </scstep>
  <scstep>
   <time name="dav">    7.12    7.13</time>
   <time name="total">    7.34    7.35</time>
   <energy>
    <i name="e_fr_energy">    -42.12128024 </i>
    <i name="e_wo_entrp">    -41.95999879 </i>
    <i name="e_0_energy">    -42.04063951 </i>
   </energy>
  </scstep>
  <scstep>
   <time name="dav">    7.29    7.30</time>
   <time name="total">    7.51    7.52</time>
   <energy>
    <i name="e_fr_energy">    -42.11095898 </i>
    <i name="e_wo_entrp">    -41.95206168 </i>
    <i name="e_0_energy">    -42.03151033 </i>
   </energy>
  </scstep>
  <scstep>
   <time name="dav">    7.00    7.00</time>
   <time name="total">    7.21    7.22</time>
   <energy>
    <i name="e_fr_energy">    -42.11066582 </i>
    <i name="e_wo_entrp">    -41.95313945 </i>
    <i name="e_0_energy">    -42.03190263 </i>
   </energy>
  </scstep>
  <scstep>
   <time name="dav">    5.52    5.55</time>
   <time name="total">    5.74    5.77</time>
   <energy>
    <i name="e_fr_energy">    -42.11079201 </i>
    <i name="e_wo_entrp">    -41.95342234 </i>
    <i name="e_0_energy">    -42.03210717 </i>
   </energy>
  </scstep>
  <scstep>
   <time name="dav">    5.49    5.49</time>
   <time name="total">    5.54    5.57</time>
   <energy>
    <i name="alphaZ">    322.86500942 </i>
    <i name="ewald">  -7781.05210270 </i>
    <i name="hartreedc">  -5428.85144142 </i>
    <i name="XCdc">    362.87849429 </i>
    <i name="pawpsdc">  10367.14787835 </i>
    <i name="pawaedc"> -10793.04805889 </i>
    <i name="eentropy">     -0.15693759 </i>
    <i name="bandstr">  -1348.78032494 </i>
    <i name="atom">  14256.88664124 </i>
    <i name="e_fr_energy">    -42.11084224 </i>
    <i name="e_wo_entrp">    -41.95390466 </i>
    <i name="e_0_energy">    -42.03237345 </i>
   </energy>
  </scstep>
  <parameters_embedded>
   <separator name="dft+d2" >
    <i type="logical" name="LVDW"> F  </i>
   </separator>
  </parameters_embedded>
  <structure>
   <crystal>
    <varray name="basis" >
     <v>      -2.64450000       2.64450000       5.21150000 </v>
     <v>       2.64450000      -2.64450000       5.21150000 </v>
     <v>       2.64450000       2.64450000      -5.21150000 </v>
    </varray>
    <i name="volume">    145.78400469 </i>
    <varray name="rec_basis" >
     <v>       0.00000000       0.18907166       0.09594167 </v>
     <v>       0.18907166       0.00000000       0.09594167 </v>
     <v>       0.18907166       0.18907166       0.00000000 </v>
    </varray>
   </crystal>
   <varray name="positions" >
    <v>       0.00000000       0.00000000       0.00000000 </v>
    <v>       0.75000000       0.25000000       0.50000000 </v>
    <v>       0.50000000       0.50000000       0.00000000 </v>
    <v>       0.25000000       0.75000000       0.50000000 </v>
    <v>       0.37500000       0.38240000       0.50740000 </v>
    <v>       0.87500000       0.86760000       0.49260000 </v>
    <v>       0.61760000       0.12500000       0.99260000 </v>
    <v>       0.13240000       0.62500000       0.00740000 </v>
   </varray>
  </structure>
  <varray name="forces" >
   <v>       0.00000000       0.00000000       0.00000000 </v>
   <v>       0.00000000       0.00000000       0.00000000 </v>
   <v>       0.00000000       0.00000000       0.00000000 </v>
   <v>       0.00000000       0.00000000       0.00000000 </v>
   <v>       1.17901575       0.00000000       0.00000000 </v>
   <v>      -1.17901575       0.00000000       0.00000000 </v>
   <v>       0.00000000      -1.17901575       0.00000000 </v>
   <v>       0.00000000       1.17901575       0.00000000 </v>
  </varray>
  <varray name="stress" >
   <v>    -329.33694926       0.00000000       0.00000000 </v>
   <v>       0.00000000    -329.33694926       0.00000000 </v>
   <v>       0.00000000       0.00000000    -311.51190708 </v>
  </varray>
  <energy>
   <i name="e_fr_energy">    -42.11084224 </i>
   <i name="e_wo_entrp">    -42.03237345 </i>
   <i name="e_0_energy">     -0.15693759 </i>
  </energy>
  <time name="totalsc">  107.21  107.90</time>
  <eigenvalues>
   <array>
    <dimension dim="1">band</dimension>
    <dimension dim="2">kpoint</dimension>
    <dimension dim="3">spin</dimension>
    <field>eigene</field>
    <field>occ</field>
    <set>
     <set comment="spin 1">
      <set comment="kpoint 1">
       <r>  -65.3509    1.0000 </r>
       <r>  -65.3471    1.0000 </r>
       <r>  -65.3461    1.0000 </r>
       <r>  -65.3060    1.0000 </r>
       <r>  -65.2896    1.0000 </r>
       <r>  -65.2889    1.0000 </r>
       <r>  -48.3709    1.0000 </r>
       <r>  -48.3709    1.0000 </r>
       <r>  -48.3694    1.0000 </r>
       <r>  -48.3694    1.0000 </r>
       <r>  -48.3623    1.0000 </r>
       <r>  -48.3594    1.0000 </r>
       <r>   -9.7152    1.0000 </r>
       <r>   -8.4526    1.0000 </r>
       <r>   -8.4526    1.0000 </r>
       <r>   -8.4332    1.0000 </r>
       <r>   -1.2775    1.0000 </r>
       <r>   -0.4389    1.0000 </r>
       <r>   -0.4385    1.0000 </r>
       <r>   -0.4380    1.0000 </r>
       <r>   -0.4239    1.0000 </r>
       <r>    0.2487    1.0000 </r>
       <r>    0.2490    1.0000 </r>
       <r>    0.3048    1.0000 </r>
       <r>    0.6337    1.0000 </r>
       <r>    0.6339    1.0000 </r>
       <r>    0.7552    1.0000 </r>
       <r>    0.7552    1.0000 </r>
       <r>    1.7238    1.0000 </r>
       <r>    1.8541    1.0000 </r>
       <r>    2.0176    1.0000 </r>
       <r>    2.0844    1.0000 </r>
       <r>    2.1137    1.0000 </r>
       <r>    2.1139    1.0000 </r>
       <r>    2.1548    1.0000 </r>
       <r>    2.7111    1.0000 </r>
       <r>    2.7112    1.0000 </r>
       <r>    2.7775    1.0000 </r>
       <r>    3.2651    1.0000 </r>
       <r>    3.6957    1.0000 </r>
       <r>    3.7788    1.0000 </r>
       <r>    3.9931    0.9999 </r>
       <r>    3.9932    0.9999 </r>
       <r>    4.3527    0.9044 </r>
       <r>    4.3690    0.8833 </r>
       <r>    6.1348    0.0000 </r>
       <r>    6.1349    0.0000 </r>
       <r>    6.2202    0.0000 </r>
       <r>    7.2540    0.0000 </r>
       <r>    8.4807    0.0000 </r>
       <r>    9.6685    0.0000 </r>
       <r>   10.5833    0.0000 </r>
       <r>   10.5834    0.0000 </r>
       <r>   11.5448    0.0000 </r>
       <r>   11.5513    0.0000 </r>
       <r>   11.5515    0.0000 </r>
      </set>
      <set comment="kpoint 2">
       <r>  -65.3619    1.0000 </r>
       <r>  -65.3458    1.0000 </r>
       <r>  -65.3256    1.0000 </r>
       <r>  -65.3230    1.0000 </r>
       <r>  -65.3094    1.0000 </r>
       <r>  -65.3088    1.0000 </r>
       <r>  -48.3707    1.0000 </r>
       <r>  -48.3706    1.0000 </r>
       <r>  -48.3696    1.0000 </r>
       <r>  -48.3696    1.0000 </r>
       <r>  -48.3622    1.0000 </r>
       <r>  -48.3598    1.0000 </r>
       <r>   -9.5744    1.0000 </r>
       <r>   -8.5356    1.0000 </r>
       <r>   -8.5353    1.0000 </r>
       <r>   -8.4394    1.0000 </r>
       <r>   -1.0757    1.0000 </r>
       <r>   -0.7099    1.0000 </r>
       <r>   -0.6927    1.0000 </r>
       <r>   -0.2084    1.0000 </r>
       <r>   -0.2028    1.0000 </r>
       <r>    0.0146    1.0000 </r>
       <r>    0.2818    1.0000 </r>
       <r>    0.3129    1.0000 </r>
       <r>    0.3427    1.0000 </r>
       <r>    0.5866    1.0000 </r>
       <r>    0.6587    1.0000 </r>
       <r>    0.7178    1.0000 </r>
       <r>    1.7702    1.0000 </r>
       <r>    1.8448    1.0000 </r>
       <r>    1.9828    1.0000 </r>
       <r>    2.0208    1.0000 </r>
       <r>    2.0956    1.0000 </r>
       <r>    2.2112    1.0000 </r>
       <r>    2.2215    1.0000 </r>
       <r>    2.7203    1.0000 </r>
       <r>    2.8120    1.0000 </r>
       <r>    3.0892    1.0000 </r>
       <r>    3.4339    1.0000 </r>
       <r>    3.7677    1.0000 </r>
       <r>    3.9045    1.0000 </r>
       <r>    3.9189    1.0000 </r>
       <r>    4.0072    0.9999 </r>
       <r>    4.5413    0.4894 </r>
       <r>    4.5589    0.4399 </r>
       <r>    5.4350    0.0000 </r>
       <r>    5.8174    0.0000 </r>
       <r>    6.0364    0.0000 </r>
       <r>    8.1354    0.0000 </r>
       <r>    8.9677    0.0000 </r>
       <r>   10.2576    0.0000 </r>
       <r>   10.6247    0.0000 </r>
       <r>   10.6543    0.0000 </r>
       <r>   11.0871    0.0000 </r>
       <r>   11.3546    0.0000 </r>
       <r>   11.5360    0.0000 </r>
      </set>
      <set comment="kpoint 3">
       <r>  -65.3544    1.0000 </r>
       <r>  -65.3480    1.0000 </r>
       <r>  -65.3319    1.0000 </r>
       <r>  -65.3214    1.0000 </r>
       <r>  -65.3166    1.0000 </r>
       <r>  -65.3088    1.0000 </r>
       <r>  -48.3707    1.0000 </r>
       <r>  -48.3705    1.0000 </r>
       <r>  -48.3699    1.0000 </r>
       <r>  -48.3698    1.0000 </r>
       <r>  -48.3615    1.0000 </r>
       <r>  -48.3602    1.0000 </r>
       <r>   -9.2110    1.0000 </r>
       <r>   -8.6914    1.0000 </r>
       <r>   -8.6911    1.0000 </r>
       <r>   -8.5243    1.0000 </r>
       <r>   -1.1365    1.0000 </r>
       <r>   -1.1361    1.0000 </r>
       <r>   -0.5424    1.0000 </r>
       <r>   -0.4555    1.0000 </r>
       <r>   -0.3369    1.0000 </r>
       <r>    0.1905    1.0000 </r>
       <r>    0.2253    1.0000 </r>
       <r>    0.3207    1.0000 </r>
       <r>    0.3611    1.0000 </r>
       <r>    0.4932    1.0000 </r>
       <r>    0.5572    1.0000 </r>
       <r>    0.6414    1.0000 </r>
       <r>    1.8008    1.0000 </r>
       <r>    1.8655    1.0000 </r>
       <r>    1.9438    1.0000 </r>
       <r>    2.0376    1.0000 </r>
       <r>    2.1008    1.0000 </r>
       <r>    2.3965    1.0000 </r>
       <r>    2.4967    1.0000 </r>
       <r>    2.8274    1.0000 </r>
       <r>    2.9280    1.0000 </r>
       <r>    3.3615    1.0000 </r>
       <r>    3.6432    1.0000 </r>
       <r>    3.6984    1.0000 </r>
       <r>    3.9097    1.0000 </r>
       <r>    4.1914    0.9928 </r>
       <r>    4.5717    0.4045 </r>
       <r>    4.5981    0.3343 </r>
       <r>    4.8708    0.0092 </r>
       <r>    5.0444    0.0002 </r>
       <r>    5.2600    0.0000 </r>
       <r>    5.7498    0.0000 </r>
       <r>    9.2104    0.0000 </r>
       <r>    9.5091    0.0000 </r>
       <r>    9.7460    0.0000 </r>
       <r>    9.9854    0.0000 </r>
       <r>   11.1597    0.0000 </r>
       <r>   11.1900    0.0000 </r>
       <r>   11.5689    0.0000 </r>
       <r>   11.8281    0.0000 </r>
      </set>
      <set comment="kpoint 4">
       <r>  -65.3554    1.0000 </r>
       <r>  -65.3554    1.0000 </r>
       <r>  -65.3230    1.0000 </r>
       <r>  -65.3230    1.0000 </r>
       <r>  -65.3029    1.0000 </r>
       <r>  -65.3029    1.0000 </r>
       <r>  -48.3704    1.0000 </r>
       <r>  -48.3704    1.0000 </r>
       <r>  -48.3701    1.0000 </r>
       <r>  -48.3701    1.0000 </r>
       <r>  -48.3608    1.0000 </r>
       <r>  -48.3608    1.0000 </r>
       <r>   -8.7961    1.0000 </r>
       <r>   -8.7961    1.0000 </r>
       <r>   -8.7643    1.0000 </r>
       <r>   -8.7643    1.0000 </r>
       <r>   -1.3125    1.0000 </r>
       <r>   -1.3125    1.0000 </r>
       <r>   -0.6964    1.0000 </r>
       <r>   -0.6964    1.0000 </r>
       <r>    0.0263    1.0000 </r>
       <r>    0.0263    1.0000 </r>
       <r>    0.4133    1.0000 </r>
       <r>    0.4133    1.0000 </r>
       <r>    0.4292    1.0000 </r>
       <r>    0.4292    1.0000 </r>
       <r>    0.5633    1.0000 </r>
       <r>    0.5633    1.0000 </r>
       <r>    1.8255    1.0000 </r>
       <r>    1.8255    1.0000 </r>
       <r>    2.0260    1.0000 </r>
       <r>    2.0260    1.0000 </r>
       <r>    2.3621    1.0000 </r>
       <r>    2.3621    1.0000 </r>
       <r>    2.8801    1.0000 </r>
       <r>    2.8801    1.0000 </r>
       <r>    2.9217    1.0000 </r>
       <r>    2.9217    1.0000 </r>
       <r>    3.6726    1.0000 </r>
       <r>    3.6726    1.0000 </r>
       <r>    4.0909    0.9992 </r>
       <r>    4.0909    0.9992 </r>
       <r>    4.7500    0.0665 </r>
       <r>    4.7500    0.0665 </r>
       <r>    5.1897    0.0000 </r>
       <r>    5.1897    0.0000 </r>
       <r>    5.4352    0.0000 </r>
       <r>    5.4352    0.0000 </r>
       <r>    8.7358    0.0000 </r>
       <r>    8.7358    0.0000 </r>
       <r>   10.3943    0.0000 </r>
       <r>   10.3943    0.0000 </r>
       <r>   11.4070    0.0000 </r>
       <r>   11.4070    0.0000 </r>
       <r>   11.9426    0.0000 </r>
       <r>   11.9437    0.0000 </r>
      </set>
      <set comment="kpoint 5">
       <r>  -65.3554    1.0000 </r>
       <r>  -65.3554    1.0000 </r>
       <r>  -65.3230    1.0000 </r>
       <r>  -65.3230    1.0000 </r>
       <r>  -65.3029    1.0000 </r>
       <r>  -65.3029    1.0000 </r>
       <r>  -48.3704    1.0000 </r>
       <r>  -48.3704    1.0000 </r>
       <r>  -48.3701    1.0000 </r>
       <r>  -48.3701    1.0000 </r>
       <r>  -48.3608    1.0000 </r>
       <r>  -48.3608    1.0000 </r>
       <r>   -8.7961    1.0000 </r>
       <r>   -8.7961    1.0000 </r>
       <r>   -8.7643    1.0000 </r>
       <r>   -8.7643    1.0000 </r>
       <r>   -1.3125    1.0000 </r>
       <r>   -1.3125    1.0000 </r>
       <r>   -0.6964    1.0000 </r>
       <r>   -0.6964    1.0000 </r>
       <r>    0.0263    1.0000 </r>
       <r>    0.0263    1.0000 </r>
       <r>    0.4133    1.0000 </r>
       <r>    0.4133    1.0000 </r>
       <r>    0.4292    1.0000 </r>
       <r>    0.4292    1.0000 </r>
       <r>    0.5633    1.0000 </r>
       <r>    0.5633    1.0000 </r>
       <r>    1.8255    1.0000 </r>
       <r>    1.8255    1.0000 </r>
       <r>    2.0260    1.0000 </r>
       <r>    2.0260    1.0000 </r>
       <r>    2.3621    1.0000 </r>
       <r>    2.3621    1.0000 </r>
       <r>    2.8801    1.0000 </r>
       <r>    2.8801    1.0000 </r>
       <r>    2.9217    1.0000 </r>
       <r>    2.9217    1.0000 </r>
       <r>    3.6726    1.0000 </r>
       <r>    3.6726    1.0000 </r>
       <r>    4.0909    0.9992 </r>
       <r>    4.0909    0.9992 </r>
       <r>    4.7500    0.0665 </r>
       <r>    4.7500    0.0665 </r>
       <r>    5.1897    0.0000 </r>
       <r>    5.1897    0.0000 </r>
       <r>    5.4352    0.0000 </r>
       <r>    5.4352    0.0000 </r>
       <r>    8.7358    0.0000 </r>
       <r>    8.7358    0.0000 </r>
       <r>   10.3943    0.0000 </r>
       <r>   10.3943    0.0000 </r>
       <r>   11.4070    0.0000 </r>
       <r>   11.4070    0.0000 </r>
       <r>   11.9423    0.0000 </r>
       <r>   11.9430    0.0000 </r>
      </set>
      <set comment="kpoint 6">
       <r>  -65.3559    1.0000 </r>
       <r>  -65.3559    1.0000 </r>
       <r>  -65.3139    1.0000 </r>
       <r>  -65.3139    1.0000 </r>
       <r>  -65.3042    1.0000 </r>
       <r>  -65.3042    1.0000 </r>
       <r>  -48.3704    1.0000 </r>
       <r>  -48.3704    1.0000 </r>
       <r>  -48.3701    1.0000 </r>
       <r>  -48.3701    1.0000 </r>
       <r>  -48.3609    1.0000 </r>
       <r>  -48.3609    1.0000 </r>
       <r>   -8.7914    1.0000 </r>
       <r>   -8.7914    1.0000 </r>
       <r>   -8.7706    1.0000 </r>
       <r>   -8.7706    1.0000 </r>
       <r>   -1.2947    1.0000 </r>
       <r>   -1.2947    1.0000 </r>
       <r>   -0.7047    1.0000 </r>
       <r>   -0.7047    1.0000 </r>
       <r>    0.0365    1.0000 </r>
       <r>    0.0365    1.0000 </r>
       <r>    0.4129    1.0000 </r>
       <r>    0.4129    1.0000 </r>
       <r>    0.4285    1.0000 </r>
       <r>    0.4285    1.0000 </r>
       <r>    0.5631    1.0000 </r>
       <r>    0.5631    1.0000 </r>
       <r>    1.8263    1.0000 </r>
       <r>    1.8263    1.0000 </r>
       <r>    2.0208    1.0000 </r>
       <r>    2.0208    1.0000 </r>
       <r>    2.3719    1.0000 </r>
       <r>    2.3719    1.0000 </r>
       <r>    2.8659    1.0000 </r>
       <r>    2.8659    1.0000 </r>
       <r>    2.9307    1.0000 </r>
       <r>    2.9307    1.0000 </r>
       <r>    3.6716    1.0000 </r>
       <r>    3.6716    1.0000 </r>
       <r>    4.0758    0.9995 </r>
       <r>    4.0758    0.9995 </r>
       <r>    4.7539    0.0630 </r>
       <r>    4.7539    0.0630 </r>
       <r>    5.1858    0.0000 </r>
       <r>    5.1858    0.0000 </r>
       <r>    5.4099    0.0000 </r>
       <r>    5.4099    0.0000 </r>
       <r>    8.7620    0.0000 </r>
       <r>    8.7620    0.0000 </r>
       <r>   10.4830    0.0000 </r>
       <r>   10.4830    0.0000 </r>
       <r>   11.3155    0.0000 </r>
       <r>   11.3155    0.0000 </r>
       <r>   11.9391    0.0000 </r>
       <r>   11.9531    0.0000 </r>
      </set>
      <set comment="kpoint 7">
       <r>  -65.3534    1.0000 </r>
       <r>  -65.3534    1.0000 </r>
       <r>  -65.3083    1.0000 </r>
       <r>  -65.3083    1.0000 </r>
       <r>  -65.2980    1.0000 </r>
       <r>  -65.2980    1.0000 </r>
       <r>  -48.3705    1.0000 </r>
       <r>  -48.3705    1.0000 </r>
       <r>  -48.3699    1.0000 </r>
       <r>  -48.3699    1.0000 </r>
       <r>  -48.3609    1.0000 </r>
       <r>  -48.3609    1.0000 </r>
       <r>   -8.7954    1.0000 </r>
       <r>   -8.7954    1.0000 </r>
       <r>   -8.7710    1.0000 </r>
       <r>   -8.7710    1.0000 </r>
       <r>   -1.2437    1.0000 </r>
       <r>   -1.2437    1.0000 </r>
       <r>   -0.7295    1.0000 </r>
       <r>   -0.7295    1.0000 </r>
       <r>    0.0664    1.0000 </r>
       <r>    0.0664    1.0000 </r>
       <r>    0.4094    1.0000 </r>
       <r>    0.4094    1.0000 </r>
       <r>    0.4297    1.0000 </r>
       <r>    0.4297    1.0000 </r>
       <r>    0.5629    1.0000 </r>
       <r>    0.5629    1.0000 </r>
       <r>    1.8264    1.0000 </r>
       <r>    1.8264    1.0000 </r>
       <r>    2.0090    1.0000 </r>
       <r>    2.0090    1.0000 </r>
       <r>    2.3912    1.0000 </r>
       <r>    2.3912    1.0000 </r>
       <r>    2.8364    1.0000 </r>
       <r>    2.8364    1.0000 </r>
       <r>    2.9467    1.0000 </r>
       <r>    2.9467    1.0000 </r>
       <r>    3.6704    1.0000 </r>
       <r>    3.6704    1.0000 </r>
       <r>    4.0367    0.9998 </r>
       <r>    4.0367    0.9998 </r>
       <r>    4.7578    0.0597 </r>
       <r>    4.7578    0.0597 </r>
       <r>    5.1750    0.0000 </r>
       <r>    5.1750    0.0000 </r>
       <r>    5.3466    0.0000 </r>
       <r>    5.3466    0.0000 </r>
       <r>    8.8361    0.0000 </r>
       <r>    8.8361    0.0000 </r>
       <r>   10.7302    0.0000 </r>
       <r>   10.7302    0.0000 </r>
       <r>   11.0488    0.0000 </r>
       <r>   11.0488    0.0000 </r>
       <r>   11.7991    0.0000 </r>
       <r>   11.8001    0.0000 </r>
      </set>
      <set comment="kpoint 8">
       <r>  -65.3525    1.0000 </r>
       <r>  -65.3525    1.0000 </r>
       <r>  -65.3089    1.0000 </r>
       <r>  -65.3089    1.0000 </r>
       <r>  -65.2978    1.0000 </r>
       <r>  -65.2978    1.0000 </r>
       <r>  -48.3706    1.0000 </r>
       <r>  -48.3706    1.0000 </r>
       <r>  -48.3698    1.0000 </r>
       <r>  -48.3698    1.0000 </r>
       <r>  -48.3608    1.0000 </r>
       <r>  -48.3608    1.0000 </r>
       <r>   -8.8267    1.0000 </r>
       <r>   -8.8267    1.0000 </r>
       <r>   -8.7460    1.0000 </r>
       <r>   -8.7460    1.0000 </r>
       <r>   -1.1652    1.0000 </r>
       <r>   -1.1652    1.0000 </r>
       <r>   -0.7707    1.0000 </r>
       <r>   -0.7707    1.0000 </r>
       <r>    0.1136    1.0000 </r>
       <r>    0.1136    1.0000 </r>
       <r>    0.4003    1.0000 </r>
       <r>    0.4003    1.0000 </r>
       <r>    0.4315    1.0000 </r>
       <r>    0.4315    1.0000 </r>
       <r>    0.5673    1.0000 </r>
       <r>    0.5673    1.0000 </r>
       <r>    1.8254    1.0000 </r>
       <r>    1.8254    1.0000 </r>
       <r>    1.9909    1.0000 </r>
       <r>    1.9909    1.0000 </r>
       <r>    2.4148    1.0000 </r>
       <r>    2.4148    1.0000 </r>
       <r>    2.7957    1.0000 </r>
       <r>    2.7957    1.0000 </r>
       <r>    2.9598    1.0000 </r>
       <r>    2.9598    1.0000 </r>
       <r>    3.6698    1.0000 </r>
       <r>    3.6698    1.0000 </r>
       <r>    3.9874    0.9999 </r>
       <r>    3.9874    0.9999 </r>
       <r>    4.7419    0.0742 </r>
       <r>    4.7419    0.0742 </r>
       <r>    5.1518    0.0000 </r>
       <r>    5.1518    0.0000 </r>
       <r>    5.2786    0.0000 </r>
       <r>    5.2786    0.0000 </r>
       <r>    8.9494    0.0000 </r>
       <r>    8.9494    0.0000 </r>
       <r>   10.6630    0.0000 </r>
       <r>   10.6630    0.0000 </r>
       <r>   11.0675    0.0000 </r>
       <r>   11.0675    0.0000 </r>
       <r>   11.6171    0.0000 </r>
       <r>   11.6171    0.0000 </r>
      </set>
      <set comment="kpoint 9">
       <r>  -65.3525    1.0000 </r>
       <r>  -65.3525    1.0000 </r>
       <r>  -65.3089    1.0000 </r>
       <r>  -65.3089    1.0000 </r>
       <r>  -65.2978    1.0000 </r>
       <r>  -65.2978    1.0000 </r>
       <r>  -48.3706    1.0000 </r>
       <r>  -48.3706    1.0000 </r>
       <r>  -48.3698    1.0000 </r>
       <r>  -48.3698    1.0000 </r>
       <r>  -48.3608    1.0000 </r>
       <r>  -48.3608    1.0000 </r>
       <r>   -8.8267    1.0000 </r>
       <r>   -8.8267    1.0000 </r>
       <r>   -8.7460    1.0000 </r>
       <r>   -8.7460    1.0000 </r>
       <r>   -1.1652    1.0000 </r>
       <r>   -1.1652    1.0000 </r>
       <r>   -0.7707    1.0000 </r>
       <r>   -0.7707    1.0000 </r>
       <r>    0.1136    1.0000 </r>
       <r>    0.1136    1.0000 </r>
       <r>    0.4003    1.0000 </r>
       <r>    0.4003    1.0000 </r>
       <r>    0.4315    1.0000 </r>
       <r>    0.4315    1.0000 </r>
       <r>    0.5673    1.0000 </r>
       <r>    0.5673    1.0000 </r>
       <r>    1.8254    1.0000 </r>
       <r>    1.8254    1.0000 </r>
       <r>    1.9909    1.0000 </r>
       <r>    1.9909    1.0000 </r>
       <r>    2.4148    1.0000 </r>
       <r>    2.4148    1.0000 </r>
       <r>    2.7957    1.0000 </r>
       <r>    2.7957    1.0000 </r>
       <r>    2.9598    1.0000 </r>
       <r>    2.9598    1.0000 </r>
       <r>    3.6698    1.0000 </r>
       <r>    3.6698    1.0000 </r>
       <r>    3.9874    0.9999 </r>
       <r>    3.9874    0.9999 </r>
       <r>    4.7419    0.0742 </r>
       <r>    4.7419    0.0742 </r>
       <r>    5.1518    0.0000 </r>
       <r>    5.1518    0.0000 </r>
       <r>    5.2786    0.0000 </r>
       <r>    5.2786    0.0000 </r>
       <r>    8.9494    0.0000 </r>
       <r>    8.9494    0.0000 </r>
       <r>   10.6630    0.0000 </r>
       <r>   10.6630    0.0000 </r>
       <r>   11.0675    0.0000 </r>
       <r>   11.0675    0.0000 </r>
       <r>   11.6171    0.0000 </r>
       <r>   11.6172    0.0000 </r>
      </set>
      <set comment="kpoint 10">
       <r>  -65.3640    1.0000 </r>
       <r>  -65.3628    1.0000 </r>
       <r>  -65.3325    1.0000 </r>
       <r>  -65.3182    1.0000 </r>
       <r>  -65.3091    1.0000 </r>
       <r>  -65.3082    1.0000 </r>
       <r>  -48.3708    1.0000 </r>
       <r>  -48.3706    1.0000 </r>
       <r>  -48.3699    1.0000 </r>
       <r>  -48.3696    1.0000 </r>
       <r>  -48.3611    1.0000 </r>
       <r>  -48.3607    1.0000 </r>
       <r>   -8.8789    1.0000 </r>
       <r>   -8.8765    1.0000 </r>
       <r>   -8.8191    1.0000 </r>
       <r>   -8.5908    1.0000 </r>
       <r>   -1.0112    1.0000 </r>
       <r>   -1.0036    1.0000 </r>
       <r>   -0.8208    1.0000 </r>
       <r>   -0.8050    1.0000 </r>
       <r>    0.0606    1.0000 </r>
       <r>    0.2647    1.0000 </r>
       <r>    0.3177    1.0000 </r>
       <r>    0.3791    1.0000 </r>
       <r>    0.4330    1.0000 </r>
       <r>    0.4826    1.0000 </r>
       <r>    0.5534    1.0000 </r>
       <r>    0.6176    1.0000 </r>
       <r>    1.8107    1.0000 </r>
       <r>    1.8349    1.0000 </r>
       <r>    1.9212    1.0000 </r>
       <r>    1.9949    1.0000 </r>
       <r>    2.3499    1.0000 </r>
       <r>    2.4459    1.0000 </r>
       <r>    2.6492    1.0000 </r>
       <r>    2.7948    1.0000 </r>
       <r>    2.9513    1.0000 </r>
       <r>    3.0763    1.0000 </r>
       <r>    3.6460    1.0000 </r>
       <r>    3.6904    1.0000 </r>
       <r>    3.8217    1.0000 </r>
       <r>    4.0831    0.9993 </r>
       <r>    4.5450    0.4789 </r>
       <r>    4.7207    0.0976 </r>
       <r>    4.9232    0.0032 </r>
       <r>    5.0768    0.0001 </r>
       <r>    5.2559    0.0000 </r>
       <r>    5.3105    0.0000 </r>
       <r>    9.2662    0.0000 </r>
       <r>    9.2812    0.0000 </r>
       <r>    9.8111    0.0000 </r>
       <r>   10.3312    0.0000 </r>
       <r>   10.8491    0.0000 </r>
       <r>   11.3021    0.0000 </r>
       <r>   11.5904    0.0000 </r>
       <r>   11.6793    0.0000 </r>
      </set>
      <set comment="kpoint 11">
       <r>  -65.3703    1.0000 </r>
       <r>  -65.3634    1.0000 </r>
       <r>  -65.3277    1.0000 </r>
       <r>  -65.3268    1.0000 </r>
       <r>  -65.3070    1.0000 </r>
       <r>  -65.3014    1.0000 </r>
       <r>  -48.3709    1.0000 </r>
       <r>  -48.3707    1.0000 </r>
       <r>  -48.3698    1.0000 </r>
       <r>  -48.3694    1.0000 </r>
       <r>  -48.3613    1.0000 </r>
       <r>  -48.3606    1.0000 </r>
       <r>   -8.9168    1.0000 </r>
       <r>   -8.9121    1.0000 </r>
       <r>   -8.8673    1.0000 </r>
       <r>   -8.4845    1.0000 </r>
       <r>   -0.9158    1.0000 </r>
       <r>   -0.8650    1.0000 </r>
       <r>   -0.7607    1.0000 </r>
       <r>   -0.7588    1.0000 </r>
       <r>    0.0283    1.0000 </r>
       <r>    0.1962    1.0000 </r>
       <r>    0.2055    1.0000 </r>
       <r>    0.4098    1.0000 </r>
       <r>    0.4570    1.0000 </r>
       <r>    0.5421    1.0000 </r>
       <r>    0.5876    1.0000 </r>
       <r>    0.6683    1.0000 </r>
       <r>    1.7988    1.0000 </r>
       <r>    1.8285    1.0000 </r>
       <r>    1.8905    1.0000 </r>
       <r>    2.0067    1.0000 </r>
       <r>    2.2112    1.0000 </r>
       <r>    2.4099    1.0000 </r>
       <r>    2.5956    1.0000 </r>
       <r>    2.7242    1.0000 </r>
       <r>    3.0714    1.0000 </r>
       <r>    3.1152    1.0000 </r>
       <r>    3.5982    1.0000 </r>
       <r>    3.7393    1.0000 </r>
       <r>    3.8350    1.0000 </r>
       <r>    4.1923    0.9927 </r>
       <r>    4.4045    0.8265 </r>
       <r>    4.5215    0.5452 </r>
       <r>    4.6942    0.1339 </r>
       <r>    4.9143    0.0039 </r>
       <r>    5.3156    0.0000 </r>
       <r>    5.4008    0.0000 </r>
       <r>    9.1492    0.0000 </r>
       <r>    9.7181    0.0000 </r>
       <r>    9.8026    0.0000 </r>
       <r>   10.1123    0.0000 </r>
       <r>   10.5618    0.0000 </r>
       <r>   11.2137    0.0000 </r>
       <r>   11.4197    0.0000 </r>
       <r>   11.5476    0.0000 </r>
      </set>
      <set comment="kpoint 12">
       <r>  -65.3656    1.0000 </r>
       <r>  -65.3563    1.0000 </r>
       <r>  -65.3226    1.0000 </r>
       <r>  -65.3226    1.0000 </r>
       <r>  -65.3155    1.0000 </r>
       <r>  -65.3049    1.0000 </r>
       <r>  -48.3709    1.0000 </r>
       <r>  -48.3707    1.0000 </r>
       <r>  -48.3698    1.0000 </r>
       <r>  -48.3693    1.0000 </r>
       <r>  -48.3613    1.0000 </r>
       <r>  -48.3606    1.0000 </r>
       <r>   -8.9307    1.0000 </r>
       <r>   -8.9249    1.0000 </r>
       <r>   -8.8840    1.0000 </r>
       <r>   -8.4467    1.0000 </r>
       <r>   -0.9110    1.0000 </r>
       <r>   -0.8434    1.0000 </r>
       <r>   -0.6858    1.0000 </r>
       <r>   -0.6789    1.0000 </r>
       <r>    0.0183    1.0000 </r>
       <r>    0.1395    1.0000 </r>
       <r>    0.1402    1.0000 </r>
       <r>    0.4219    1.0000 </r>
       <r>    0.4662    1.0000 </r>
       <r>    0.5436    1.0000 </r>
       <r>    0.6363    1.0000 </r>
       <r>    0.6888    1.0000 </r>
       <r>    1.7873    1.0000 </r>
       <r>    1.8149    1.0000 </r>
       <r>    1.9001    1.0000 </r>
       <r>    2.0244    1.0000 </r>
       <r>    2.1209    1.0000 </r>
       <r>    2.3969    1.0000 </r>
       <r>    2.5728    1.0000 </r>
       <r>    2.7020    1.0000 </r>
       <r>    3.0727    1.0000 </r>
       <r>    3.1662    1.0000 </r>
       <r>    3.5827    1.0000 </r>
       <r>    3.7934    1.0000 </r>
       <r>    3.8752    1.0000 </r>
       <r>    4.2588    0.9756 </r>
       <r>    4.2853    0.9628 </r>
       <r>    4.5155    0.5620 </r>
       <r>    4.5259    0.5329 </r>
       <r>    4.8484    0.0140 </r>
       <r>    5.3375    0.0000 </r>
       <r>    5.4450    0.0000 </r>
       <r>    8.9103    0.0000 </r>
       <r>    9.8979    0.0000 </r>
       <r>   10.0306    0.0000 </r>
       <r>   10.1317    0.0000 </r>
       <r>   10.6213    0.0000 </r>
       <r>   11.1463    0.0000 </r>
       <r>   11.3352    0.0000 </r>
       <r>   11.4554    0.0000 </r>
      </set>
      <set comment="kpoint 13">
       <r>  -65.3656    1.0000 </r>
       <r>  -65.3563    1.0000 </r>
       <r>  -65.3226    1.0000 </r>
       <r>  -65.3226    1.0000 </r>
       <r>  -65.3155    1.0000 </r>
       <r>  -65.3049    1.0000 </r>
       <r>  -48.3709    1.0000 </r>
       <r>  -48.3707    1.0000 </r>
       <r>  -48.3698    1.0000 </r>
       <r>  -48.3693    1.0000 </r>
       <r>  -48.3613    1.0000 </r>
       <r>  -48.3606    1.0000 </r>
       <r>   -8.9307    1.0000 </r>
       <r>   -8.9249    1.0000 </r>
       <r>   -8.8840    1.0000 </r>
       <r>   -8.4467    1.0000 </r>
       <r>   -0.9110    1.0000 </r>
       <r>   -0.8434    1.0000 </r>
       <r>   -0.6858    1.0000 </r>
       <r>   -0.6789    1.0000 </r>
       <r>    0.0183    1.0000 </r>
       <r>    0.1395    1.0000 </r>
       <r>    0.1402    1.0000 </r>
       <r>    0.4219    1.0000 </r>
       <r>    0.4662    1.0000 </r>
       <r>    0.5436    1.0000 </r>
       <r>    0.6363    1.0000 </r>
       <r>    0.6888    1.0000 </r>
       <r>    1.7873    1.0000 </r>
       <r>    1.8149    1.0000 </r>
       <r>    1.9001    1.0000 </r>
       <r>    2.0244    1.0000 </r>
       <r>    2.1209    1.0000 </r>
       <r>    2.3969    1.0000 </r>
       <r>    2.5728    1.0000 </r>
       <r>    2.7020    1.0000 </r>
       <r>    3.0727    1.0000 </r>
       <r>    3.1662    1.0000 </r>
       <r>    3.5827    1.0000 </r>
       <r>    3.7934    1.0000 </r>
       <r>    3.8752    1.0000 </r>
       <r>    4.2588    0.9756 </r>
       <r>    4.2853    0.9628 </r>
       <r>    4.5155    0.5620 </r>
       <r>    4.5259    0.5329 </r>
       <r>    4.8484    0.0140 </r>
       <r>    5.3375    0.0000 </r>
       <r>    5.4450    0.0000 </r>
       <r>    8.9103    0.0000 </r>
       <r>    9.8979    0.0000 </r>
       <r>   10.0306    0.0000 </r>
       <r>   10.1317    0.0000 </r>
       <r>   10.6213    0.0000 </r>
       <r>   11.1463    0.0000 </r>
       <r>   11.3352    0.0000 </r>
       <r>   11.4550    0.0000 </r>
      </set>
      <set comment="kpoint 14">
       <r>  -65.3627    1.0000 </r>
       <r>  -65.3606    1.0000 </r>
       <r>  -65.3293    1.0000 </r>
       <r>  -65.3261    1.0000 </r>
       <r>  -65.3117    1.0000 </r>
       <r>  -65.2956    1.0000 </r>
       <r>  -48.3709    1.0000 </r>
       <r>  -48.3702    1.0000 </r>
       <r>  -48.3702    1.0000 </r>
       <r>  -48.3695    1.0000 </r>
       <r>  -48.3618    1.0000 </r>
       <r>  -48.3601    1.0000 </r>
       <r>   -9.2951    1.0000 </r>
       <r>   -8.7067    1.0000 </r>
       <r>   -8.7065    1.0000 </r>
       <r>   -8.4372    1.0000 </r>
       <r>   -0.7347    1.0000 </r>
       <r>   -0.7155    1.0000 </r>
       <r>   -0.6031    1.0000 </r>
       <r>   -0.3838    1.0000 </r>
       <r>   -0.2072    1.0000 </r>
       <r>   -0.1229    1.0000 </r>
       <r>   -0.1202    1.0000 </r>
       <r>    0.3369    1.0000 </r>
       <r>    0.4136    1.0000 </r>
       <r>    0.5398    1.0000 </r>
       <r>    0.6257    1.0000 </r>
       <r>    0.6770    1.0000 </r>
       <r>    1.7788    1.0000 </r>
       <r>    1.8390    1.0000 </r>
       <r>    1.9107    1.0000 </r>
       <r>    2.0794    1.0000 </r>
       <r>    2.1091    1.0000 </r>
       <r>    2.2274    1.0000 </r>
       <r>    2.3805    1.0000 </r>
       <r>    2.6915    1.0000 </r>
       <r>    2.8979    1.0000 </r>
       <r>    3.2033    1.0000 </r>
       <r>    3.6760    1.0000 </r>
       <r>    3.7002    1.0000 </r>
       <r>    3.7856    1.0000 </r>
       <r>    4.0164    0.9999 </r>
       <r>    4.4019    0.8313 </r>
       <r>    4.6677    0.1788 </r>
       <r>    4.8273    0.0202 </r>
       <r>    5.2258    0.0000 </r>
       <r>    5.2259    0.0000 </r>
       <r>    5.4671    0.0000 </r>
       <r>    9.0506    0.0000 </r>
       <r>   10.1088    0.0000 </r>
       <r>   10.2095    0.0000 </r>
       <r>   10.3286    0.0000 </r>
       <r>   10.5966    0.0000 </r>
       <r>   11.0098    0.0000 </r>
       <r>   11.6082    0.0000 </r>
       <r>   11.9546    0.0000 </r>
      </set>
      <set comment="kpoint 15">
       <r>  -65.3641    1.0000 </r>
       <r>  -65.3551    1.0000 </r>
       <r>  -65.3351    1.0000 </r>
       <r>  -65.3257    1.0000 </r>
       <r>  -65.3154    1.0000 </r>
       <r>  -65.3146    1.0000 </r>
       <r>  -48.3708    1.0000 </r>
       <r>  -48.3707    1.0000 </r>
       <r>  -48.3697    1.0000 </r>
       <r>  -48.3695    1.0000 </r>
       <r>  -48.3622    1.0000 </r>
       <r>  -48.3598    1.0000 </r>
       <r>   -9.6025    1.0000 </r>
       <r>   -8.5236    1.0000 </r>
       <r>   -8.5234    1.0000 </r>
       <r>   -8.4333    1.0000 </r>
       <r>   -1.1124    1.0000 </r>
       <r>   -0.5591    1.0000 </r>
       <r>   -0.5449    1.0000 </r>
       <r>   -0.3492    1.0000 </r>
       <r>   -0.3454    1.0000 </r>
       <r>    0.0617    1.0000 </r>
       <r>    0.2628    1.0000 </r>
       <r>    0.3228    1.0000 </r>
       <r>    0.3992    1.0000 </r>
       <r>    0.6099    1.0000 </r>
       <r>    0.6993    1.0000 </r>
       <r>    0.7064    1.0000 </r>
       <r>    1.7598    1.0000 </r>
       <r>    1.8399    1.0000 </r>
       <r>    1.9609    1.0000 </r>
       <r>    2.0893    1.0000 </r>
       <r>    2.1299    1.0000 </r>
       <r>    2.1531    1.0000 </r>
       <r>    2.1941    1.0000 </r>
       <r>    2.6936    1.0000 </r>
       <r>    2.7525    1.0000 </r>
       <r>    2.9927    1.0000 </r>
       <r>    3.4284    1.0000 </r>
       <r>    3.7830    1.0000 </r>
       <r>    3.7848    1.0000 </r>
       <r>    3.8843    1.0000 </r>
       <r>    4.0903    0.9992 </r>
       <r>    4.5134    0.5677 </r>
       <r>    4.5204    0.5483 </r>
       <r>    5.6732    0.0000 </r>
       <r>    5.8256    0.0000 </r>
       <r>    5.9286    0.0000 </r>
       <r>    8.0538    0.0000 </r>
       <r>    9.0178    0.0000 </r>
       <r>   10.1053    0.0000 </r>
       <r>   10.5575    0.0000 </r>
       <r>   10.5658    0.0000 </r>
       <r>   10.9715    0.0000 </r>
       <r>   11.7555    0.0000 </r>
       <r>   11.7869    0.0000 </r>
      </set>
      <set comment="kpoint 16">
       <r>  -65.3509    1.0000 </r>
       <r>  -65.3471    1.0000 </r>
       <r>  -65.3461    1.0000 </r>
       <r>  -65.3060    1.0000 </r>
       <r>  -65.2896    1.0000 </r>
       <r>  -65.2889    1.0000 </r>
       <r>  -48.3709    1.0000 </r>
       <r>  -48.3709    1.0000 </r>
       <r>  -48.3694    1.0000 </r>
       <r>  -48.3694    1.0000 </r>
       <r>  -48.3623    1.0000 </r>
       <r>  -48.3594    1.0000 </r>
       <r>   -9.7152    1.0000 </r>
       <r>   -8.4526    1.0000 </r>
       <r>   -8.4526    1.0000 </r>
       <r>   -8.4332    1.0000 </r>
       <r>   -1.2775    1.0000 </r>
       <r>   -0.4389    1.0000 </r>
       <r>   -0.4385    1.0000 </r>
       <r>   -0.4380    1.0000 </r>
       <r>   -0.4239    1.0000 </r>
       <r>    0.2487    1.0000 </r>
       <r>    0.2490    1.0000 </r>
       <r>    0.3048    1.0000 </r>
       <r>    0.6337    1.0000 </r>
       <r>    0.6339    1.0000 </r>
       <r>    0.7552    1.0000 </r>
       <r>    0.7552    1.0000 </r>
       <r>    1.7238    1.0000 </r>
       <r>    1.8541    1.0000 </r>
       <r>    2.0176    1.0000 </r>
       <r>    2.0844    1.0000 </r>
       <r>    2.1137    1.0000 </r>
       <r>    2.1139    1.0000 </r>
       <r>    2.1548    1.0000 </r>
       <r>    2.7111    1.0000 </r>
       <r>    2.7112    1.0000 </r>
       <r>    2.7775    1.0000 </r>
       <r>    3.2651    1.0000 </r>
       <r>    3.6957    1.0000 </r>
       <r>    3.7788    1.0000 </r>
       <r>    3.9931    0.9999 </r>
       <r>    3.9932    0.9999 </r>
       <r>    4.3527    0.9044 </r>
       <r>    4.3690    0.8833 </r>
       <r>    6.1348    0.0000 </r>
       <r>    6.1349    0.0000 </r>
       <r>    6.2202    0.0000 </r>
       <r>    7.2540    0.0000 </r>
       <r>    8.4807    0.0000 </r>
       <r>    9.6685    0.0000 </r>
       <r>   10.5833    0.0000 </r>
       <r>   10.5834    0.0000 </r>
       <r>   11.5448    0.0000 </r>
       <r>   11.5513    0.0000 </r>
       <r>   11.5515    0.0000 </r>
      </set>
      <set comment="kpoint 17">
       <r>  -65.3509    1.0000 </r>
       <r>  -65.3471    1.0000 </r>
       <r>  -65.3461    1.0000 </r>
       <r>  -65.3060    1.0000 </r>
       <r>  -65.2896    1.0000 </r>
       <r>  -65.2889    1.0000 </r>
       <r>  -48.3709    1.0000 </r>
       <r>  -48.3709    1.0000 </r>
       <r>  -48.3694    1.0000 </r>
       <r>  -48.3694    1.0000 </r>
       <r>  -48.3623    1.0000 </r>
       <r>  -48.3594    1.0000 </r>
       <r>   -9.7152    1.0000 </r>
       <r>   -8.4526    1.0000 </r>
       <r>   -8.4526    1.0000 </r>
       <r>   -8.4332    1.0000 </r>
       <r>   -1.2775    1.0000 </r>
       <r>   -0.4389    1.0000 </r>
       <r>   -0.4385    1.0000 </r>
       <r>   -0.4380    1.0000 </r>
       <r>   -0.4239    1.0000 </r>
       <r>    0.2487    1.0000 </r>
       <r>    0.2490    1.0000 </r>
       <r>    0.3048    1.0000 </r>
       <r>    0.6337    1.0000 </r>
       <r>    0.6339    1.0000 </r>
       <r>    0.7552    1.0000 </r>
       <r>    0.7552    1.0000 </r>
       <r>    1.7238    1.0000 </r>
       <r>    1.8541    1.0000 </r>
       <r>    2.0176    1.0000 </r>
       <r>    2.0844    1.0000 </r>
       <r>    2.1137    1.0000 </r>
       <r>    2.1139    1.0000 </r>
       <r>    2.1548    1.0000 </r>
       <r>    2.7111    1.0000 </r>
       <r>    2.7112    1.0000 </r>
       <r>    2.7775    1.0000 </r>
       <r>    3.2651    1.0000 </r>
       <r>    3.6957    1.0000 </r>
       <r>    3.7788    1.0000 </r>
       <r>    3.9931    0.9999 </r>
       <r>    3.9932    0.9999 </r>
       <r>    4.3527    0.9044 </r>
       <r>    4.3690    0.8833 </r>
       <r>    6.1348    0.0000 </r>
       <r>    6.1349    0.0000 </r>
       <r>    6.2202    0.0000 </r>
       <r>    7.2540    0.0000 </r>
       <r>    8.4807    0.0000 </r>
       <r>    9.6685    0.0000 </r>
       <r>   10.5833    0.0000 </r>
       <r>   10.5834    0.0000 </r>
       <r>   11.5448    0.0000 </r>
       <r>   11.5513    0.0000 </r>
       <r>   11.5515    0.0000 </r>
      </set>
      <set comment="kpoint 18">
       <r>  -65.3592    1.0000 </r>
       <r>  -65.3497    1.0000 </r>
       <r>  -65.3396    1.0000 </r>
       <r>  -65.3388    1.0000 </r>
       <r>  -65.3174    1.0000 </r>
       <r>  -65.3167    1.0000 </r>
       <r>  -48.3709    1.0000 </r>
       <r>  -48.3709    1.0000 </r>
       <r>  -48.3695    1.0000 </r>
       <r>  -48.3695    1.0000 </r>
       <r>  -48.3621    1.0000 </r>
       <r>  -48.3599    1.0000 </r>
       <r>   -9.6414    1.0000 </r>
       <r>   -8.5344    1.0000 </r>
       <r>   -8.4546    1.0000 </r>
       <r>   -8.4546    1.0000 </r>
       <r>   -1.1980    1.0000 </r>
       <r>   -0.9134    1.0000 </r>
       <r>   -0.8932    1.0000 </r>
       <r>    0.0683    1.0000 </r>
       <r>    0.1067    1.0000 </r>
       <r>    0.2103    1.0000 </r>
       <r>    0.2530    1.0000 </r>
       <r>    0.2533    1.0000 </r>
       <r>    0.5889    1.0000 </r>
       <r>    0.5891    1.0000 </r>
       <r>    0.7685    1.0000 </r>
       <r>    0.7685    1.0000 </r>
       <r>    1.7536    1.0000 </r>
       <r>    1.8231    1.0000 </r>
       <r>    1.9790    1.0000 </r>
       <r>    2.0261    1.0000 </r>
       <r>    2.1442    1.0000 </r>
       <r>    2.1444    1.0000 </r>
       <r>    2.3225    1.0000 </r>
       <r>    2.7659    1.0000 </r>
       <r>    2.7659    1.0000 </r>
       <r>    2.8046    1.0000 </r>
       <r>    3.3180    1.0000 </r>
       <r>    3.6671    1.0000 </r>
       <r>    3.9096    1.0000 </r>
       <r>    4.0874    0.9993 </r>
       <r>    4.0875    0.9993 </r>
       <r>    4.2458    0.9804 </r>
       <r>    4.3295    0.9294 </r>
       <r>    5.8691    0.0000 </r>
       <r>    5.9195    0.0000 </r>
       <r>    5.9196    0.0000 </r>
       <r>    7.8415    0.0000 </r>
       <r>    8.5523    0.0000 </r>
       <r>    9.7595    0.0000 </r>
       <r>    9.8603    0.0000 </r>
       <r>    9.8603    0.0000 </r>
       <r>   10.9968    0.0000 </r>
       <r>   11.1893    0.0000 </r>
       <r>   11.3697    0.0000 </r>
      </set>
      <set comment="kpoint 19">
       <r>  -65.3748    1.0000 </r>
       <r>  -65.3625    1.0000 </r>
       <r>  -65.3477    1.0000 </r>
       <r>  -65.3470    1.0000 </r>
       <r>  -65.3243    1.0000 </r>
       <r>  -65.3235    1.0000 </r>
       <r>  -48.3710    1.0000 </r>
       <r>  -48.3710    1.0000 </r>
       <r>  -48.3694    1.0000 </r>
       <r>  -48.3694    1.0000 </r>
       <r>  -48.3618    1.0000 </r>
       <r>  -48.3603    1.0000 </r>
       <r>   -9.4324    1.0000 </r>
       <r>   -8.7970    1.0000 </r>
       <r>   -8.4585    1.0000 </r>
       <r>   -8.4585    1.0000 </r>
       <r>   -1.2425    1.0000 </r>
       <r>   -1.2286    1.0000 </r>
       <r>   -0.9115    1.0000 </r>
       <r>   -0.1570    1.0000 </r>
       <r>    0.2974    1.0000 </r>
       <r>    0.2976    1.0000 </r>
       <r>    0.4838    1.0000 </r>
       <r>    0.4840    1.0000 </r>
       <r>    0.5432    1.0000 </r>
       <r>    0.5591    1.0000 </r>
       <r>    0.7986    1.0000 </r>
       <r>    0.7986    1.0000 </r>
       <r>    1.7880    1.0000 </r>
       <r>    1.7943    1.0000 </r>
       <r>    1.9259    1.0000 </r>
       <r>    2.0177    1.0000 </r>
       <r>    2.2025    1.0000 </r>
       <r>    2.2026    1.0000 </r>
       <r>    2.5846    1.0000 </r>
       <r>    2.8975    1.0000 </r>
       <r>    2.9017    1.0000 </r>
       <r>    2.9017    1.0000 </r>
       <r>    3.4358    1.0000 </r>
       <r>    3.6086    1.0000 </r>
       <r>    3.9526    1.0000 </r>
       <r>    3.9682    1.0000 </r>
       <r>    4.3678    0.8850 </r>
       <r>    4.3678    0.8850 </r>
       <r>    4.5020    0.5992 </r>
       <r>    5.4244    0.0000 </r>
       <r>    5.4298    0.0000 </r>
       <r>    5.4298    0.0000 </r>
       <r>    8.7665    0.0000 </r>
       <r>    8.7892    0.0000 </r>
       <r>    8.9464    0.0000 </r>
       <r>    8.9464    0.0000 </r>
       <r>    9.8250    0.0000 </r>
       <r>   10.1181    0.0000 </r>
       <r>   10.4945    0.0000 </r>
       <r>   10.7376    0.0000 </r>
      </set>
      <set comment="kpoint 20">
       <r>  -65.3921    1.0000 </r>
       <r>  -65.3921    1.0000 </r>
       <r>  -65.3372    1.0000 </r>
       <r>  -65.3372    1.0000 </r>
       <r>  -65.3257    1.0000 </r>
       <r>  -65.3257    1.0000 </r>
       <r>  -48.3710    1.0000 </r>
       <r>  -48.3710    1.0000 </r>
       <r>  -48.3694    1.0000 </r>
       <r>  -48.3694    1.0000 </r>
       <r>  -48.3611    1.0000 </r>
       <r>  -48.3611    1.0000 </r>
       <r>   -9.1278    1.0000 </r>
       <r>   -9.1278    1.0000 </r>
       <r>   -8.4605    1.0000 </r>
       <r>   -8.4605    1.0000 </r>
       <r>   -1.3403    1.0000 </r>
       <r>   -1.3403    1.0000 </r>
       <r>   -0.5545    1.0000 </r>
       <r>   -0.5545    1.0000 </r>
       <r>    0.3702    1.0000 </r>
       <r>    0.3702    1.0000 </r>
       <r>    0.3844    1.0000 </r>
       <r>    0.3844    1.0000 </r>
       <r>    0.7166    1.0000 </r>
       <r>    0.7166    1.0000 </r>
       <r>    0.8129    1.0000 </r>
       <r>    0.8129    1.0000 </r>
       <r>    1.7790    1.0000 </r>
       <r>    1.7790    1.0000 </r>
       <r>    1.9846    1.0000 </r>
       <r>    1.9846    1.0000 </r>
       <r>    2.2236    1.0000 </r>
       <r>    2.2236    1.0000 </r>
       <r>    2.8669    1.0000 </r>
       <r>    2.8669    1.0000 </r>
       <r>    2.9776    1.0000 </r>
       <r>    2.9776    1.0000 </r>
       <r>    3.5945    1.0000 </r>
       <r>    3.5945    1.0000 </r>
       <r>    3.7499    1.0000 </r>
       <r>    3.7499    1.0000 </r>
       <r>    4.7196    0.0989 </r>
       <r>    4.7196    0.0989 </r>
       <r>    4.9771    0.0009 </r>
       <r>    4.9771    0.0009 </r>
       <r>    4.9788    0.0009 </r>
       <r>    4.9788    0.0009 </r>
       <r>    8.5834    0.0000 </r>
       <r>    8.5834    0.0000 </r>
       <r>    9.1312    0.0000 </r>
       <r>    9.1312    0.0000 </r>
       <r>    9.6538    0.0000 </r>
       <r>    9.6538    0.0000 </r>
       <r>   10.5012    0.0000 </r>
       <r>   10.5012    0.0000 </r>
      </set>
      <set comment="kpoint 21">
       <r>  -65.3921    1.0000 </r>
       <r>  -65.3921    1.0000 </r>
       <r>  -65.3372    1.0000 </r>
       <r>  -65.3372    1.0000 </r>
       <r>  -65.3257    1.0000 </r>
       <r>  -65.3257    1.0000 </r>
       <r>  -48.3710    1.0000 </r>
       <r>  -48.3710    1.0000 </r>
       <r>  -48.3694    1.0000 </r>
       <r>  -48.3694    1.0000 </r>
       <r>  -48.3611    1.0000 </r>
       <r>  -48.3611    1.0000 </r>
       <r>   -9.1278    1.0000 </r>
       <r>   -9.1278    1.0000 </r>
       <r>   -8.4605    1.0000 </r>
       <r>   -8.4605    1.0000 </r>
       <r>   -1.3403    1.0000 </r>
       <r>   -1.3403    1.0000 </r>
       <r>   -0.5545    1.0000 </r>
       <r>   -0.5545    1.0000 </r>
       <r>    0.3702    1.0000 </r>
       <r>    0.3702    1.0000 </r>
       <r>    0.3844    1.0000 </r>
       <r>    0.3844    1.0000 </r>
       <r>    0.7166    1.0000 </r>
       <r>    0.7166    1.0000 </r>
       <r>    0.8129    1.0000 </r>
       <r>    0.8129    1.0000 </r>
       <r>    1.7790    1.0000 </r>
       <r>    1.7790    1.0000 </r>
       <r>    1.9846    1.0000 </r>
       <r>    1.9846    1.0000 </r>
       <r>    2.2236    1.0000 </r>
       <r>    2.2236    1.0000 </r>
       <r>    2.8669    1.0000 </r>
       <r>    2.8669    1.0000 </r>
       <r>    2.9776    1.0000 </r>
       <r>    2.9776    1.0000 </r>
       <r>    3.5945    1.0000 </r>
       <r>    3.5945    1.0000 </r>
       <r>    3.7499    1.0000 </r>
       <r>    3.7499    1.0000 </r>
       <r>    4.7196    0.0989 </r>
       <r>    4.7196    0.0989 </r>
       <r>    4.9771    0.0009 </r>
       <r>    4.9771    0.0009 </r>
       <r>    4.9788    0.0009 </r>
       <r>    4.9788    0.0009 </r>
       <r>    8.5834    0.0000 </r>
       <r>    8.5834    0.0000 </r>
       <r>    9.1312    0.0000 </r>
       <r>    9.1312    0.0000 </r>
       <r>    9.6538    0.0000 </r>
       <r>    9.6538    0.0000 </r>
       <r>   10.5012    0.0000 </r>
       <r>   10.5012    0.0000 </r>
      </set>
      <set comment="kpoint 22">
       <r>  -65.3862    1.0000 </r>
       <r>  -65.3805    1.0000 </r>
       <r>  -65.3380    1.0000 </r>
       <r>  -65.3369    1.0000 </r>
       <r>  -65.3301    1.0000 </r>
       <r>  -65.3235    1.0000 </r>
       <r>  -48.3710    1.0000 </r>
       <r>  -48.3709    1.0000 </r>
       <r>  -48.3694    1.0000 </r>
       <r>  -48.3694    1.0000 </r>
       <r>  -48.3611    1.0000 </r>
       <r>  -48.3610    1.0000 </r>
       <r>   -9.1031    1.0000 </r>
       <r>   -9.1030    1.0000 </r>
       <r>   -8.5163    1.0000 </r>
       <r>   -8.4585    1.0000 </r>
       <r>   -1.2873    1.0000 </r>
       <r>   -1.2819    1.0000 </r>
       <r>   -0.5781    1.0000 </r>
       <r>   -0.5774    1.0000 </r>
       <r>    0.3385    1.0000 </r>
       <r>    0.3541    1.0000 </r>
       <r>    0.3786    1.0000 </r>
       <r>    0.3974    1.0000 </r>
       <r>    0.6871    1.0000 </r>
       <r>    0.7110    1.0000 </r>
       <r>    0.7128    1.0000 </r>
       <r>    0.7852    1.0000 </r>
       <r>    1.7899    1.0000 </r>
       <r>    1.8076    1.0000 </r>
       <r>    1.9043    1.0000 </r>
       <r>    1.9841    1.0000 </r>
       <r>    2.2037    1.0000 </r>
       <r>    2.3244    1.0000 </r>
       <r>    2.7917    1.0000 </r>
       <r>    2.8633    1.0000 </r>
       <r>    2.9413    1.0000 </r>
       <r>    3.0166    1.0000 </r>
       <r>    3.6023    1.0000 </r>
       <r>    3.7230    1.0000 </r>
       <r>    3.7662    1.0000 </r>
       <r>    3.7914    1.0000 </r>
       <r>    4.5829    0.3742 </r>
       <r>    4.6362    0.2427 </r>
       <r>    4.7722    0.0485 </r>
       <r>    4.9155    0.0038 </r>
       <r>    5.1174    0.0000 </r>
       <r>    5.1890    0.0000 </r>
       <r>    8.6091    0.0000 </r>
       <r>    8.7793    0.0000 </r>
       <r>    9.3379    0.0000 </r>
       <r>    9.3394    0.0000 </r>
       <r>    9.7315    0.0000 </r>
       <r>    9.8074    0.0000 </r>
       <r>   10.6037    0.0000 </r>
       <r>   10.6494    0.0000 </r>
      </set>
      <set comment="kpoint 23">
       <r>  -65.3759    1.0000 </r>
       <r>  -65.3621    1.0000 </r>
       <r>  -65.3264    1.0000 </r>
       <r>  -65.3240    1.0000 </r>
       <r>  -65.3135    1.0000 </r>
       <r>  -65.3120    1.0000 </r>
       <r>  -48.3709    1.0000 </r>
       <r>  -48.3708    1.0000 </r>
       <r>  -48.3695    1.0000 </r>
       <r>  -48.3693    1.0000 </r>
       <r>  -48.3611    1.0000 </r>
       <r>  -48.3608    1.0000 </r>
       <r>   -9.0325    1.0000 </r>
       <r>   -9.0321    1.0000 </r>
       <r>   -8.6703    1.0000 </r>
       <r>   -8.4534    1.0000 </r>
       <r>   -1.1350    1.0000 </r>
       <r>   -1.1103    1.0000 </r>
       <r>   -0.6349    1.0000 </r>
       <r>   -0.6325    1.0000 </r>
       <r>    0.2486    1.0000 </r>
       <r>    0.2672    1.0000 </r>
       <r>    0.3593    1.0000 </r>
       <r>    0.4294    1.0000 </r>
       <r>    0.4730    1.0000 </r>
       <r>    0.6200    1.0000 </r>
       <r>    0.7029    1.0000 </r>
       <r>    0.7141    1.0000 </r>
       <r>    1.8011    1.0000 </r>
       <r>    1.8314    1.0000 </r>
       <r>    1.8702    1.0000 </r>
       <r>    2.0019    1.0000 </r>
       <r>    2.1588    1.0000 </r>
       <r>    2.4739    1.0000 </r>
       <r>    2.5647    1.0000 </r>
       <r>    2.8189    1.0000 </r>
       <r>    3.0518    1.0000 </r>
       <r>    3.0820    1.0000 </r>
       <r>    3.5796    1.0000 </r>
       <r>    3.7573    1.0000 </r>
       <r>    3.8598    1.0000 </r>
       <r>    4.0477    0.9997 </r>
       <r>    4.4302    0.7761 </r>
       <r>    4.4637    0.6991 </r>
       <r>    4.5876    0.3617 </r>
       <r>    4.8317    0.0188 </r>
       <r>    5.2834    0.0000 </r>
       <r>    5.3654    0.0000 </r>
       <r>    8.7158    0.0000 </r>
       <r>    9.3161    0.0000 </r>
       <r>    9.7047    0.0000 </r>
       <r>    9.7758    0.0000 </r>
       <r>   10.0857    0.0000 </r>
       <r>   10.3031    0.0000 </r>
       <r>   10.9050    0.0000 </r>
       <r>   11.0865    0.0000 </r>
      </set>
      <set comment="kpoint 24">
       <r>  -65.3656    1.0000 </r>
       <r>  -65.3563    1.0000 </r>
       <r>  -65.3226    1.0000 </r>
       <r>  -65.3226    1.0000 </r>
       <r>  -65.3155    1.0000 </r>
       <r>  -65.3049    1.0000 </r>
       <r>  -48.3709    1.0000 </r>
       <r>  -48.3707    1.0000 </r>
       <r>  -48.3698    1.0000 </r>
       <r>  -48.3693    1.0000 </r>
       <r>  -48.3613    1.0000 </r>
       <r>  -48.3606    1.0000 </r>
       <r>   -8.9307    1.0000 </r>
       <r>   -8.9249    1.0000 </r>
       <r>   -8.8840    1.0000 </r>
       <r>   -8.4467    1.0000 </r>
       <r>   -0.9110    1.0000 </r>
       <r>   -0.8434    1.0000 </r>
       <r>   -0.6858    1.0000 </r>
       <r>   -0.6789    1.0000 </r>
       <r>    0.0183    1.0000 </r>
       <r>    0.1395    1.0000 </r>
       <r>    0.1402    1.0000 </r>
       <r>    0.4219    1.0000 </r>
       <r>    0.4662    1.0000 </r>
       <r>    0.5436    1.0000 </r>
       <r>    0.6363    1.0000 </r>
       <r>    0.6888    1.0000 </r>
       <r>    1.7873    1.0000 </r>
       <r>    1.8149    1.0000 </r>
       <r>    1.9001    1.0000 </r>
       <r>    2.0244    1.0000 </r>
       <r>    2.1209    1.0000 </r>
       <r>    2.3969    1.0000 </r>
       <r>    2.5728    1.0000 </r>
       <r>    2.7020    1.0000 </r>
       <r>    3.0727    1.0000 </r>
       <r>    3.1662    1.0000 </r>
       <r>    3.5827    1.0000 </r>
       <r>    3.7934    1.0000 </r>
       <r>    3.8752    1.0000 </r>
       <r>    4.2588    0.9756 </r>
       <r>    4.2853    0.9628 </r>
       <r>    4.5155    0.5620 </r>
       <r>    4.5259    0.5329 </r>
       <r>    4.8484    0.0140 </r>
       <r>    5.3375    0.0000 </r>
       <r>    5.4450    0.0000 </r>
       <r>    8.9103    0.0000 </r>
       <r>    9.8979    0.0000 </r>
       <r>   10.0306    0.0000 </r>
       <r>   10.1317    0.0000 </r>
       <r>   10.6213    0.0000 </r>
       <r>   11.1463    0.0000 </r>
       <r>   11.3353    0.0000 </r>
       <r>   11.4558    0.0000 </r>
      </set>
      <set comment="kpoint 25">
       <r>  -65.3656    1.0000 </r>
       <r>  -65.3563    1.0000 </r>
       <r>  -65.3226    1.0000 </r>
       <r>  -65.3226    1.0000 </r>
       <r>  -65.3155    1.0000 </r>
       <r>  -65.3049    1.0000 </r>
       <r>  -48.3709    1.0000 </r>
       <r>  -48.3707    1.0000 </r>
       <r>  -48.3698    1.0000 </r>
       <r>  -48.3693    1.0000 </r>
       <r>  -48.3613    1.0000 </r>
       <r>  -48.3606    1.0000 </r>
       <r>   -8.9307    1.0000 </r>
       <r>   -8.9249    1.0000 </r>
       <r>   -8.8840    1.0000 </r>
       <r>   -8.4467    1.0000 </r>
       <r>   -0.9110    1.0000 </r>
       <r>   -0.8434    1.0000 </r>
       <r>   -0.6858    1.0000 </r>
       <r>   -0.6789    1.0000 </r>
       <r>    0.0183    1.0000 </r>
       <r>    0.1395    1.0000 </r>
       <r>    0.1402    1.0000 </r>
       <r>    0.4219    1.0000 </r>
       <r>    0.4662    1.0000 </r>
       <r>    0.5436    1.0000 </r>
       <r>    0.6363    1.0000 </r>
       <r>    0.6888    1.0000 </r>
       <r>    1.7873    1.0000 </r>
       <r>    1.8149    1.0000 </r>
       <r>    1.9001    1.0000 </r>
       <r>    2.0244    1.0000 </r>
       <r>    2.1209    1.0000 </r>
       <r>    2.3969    1.0000 </r>
       <r>    2.5728    1.0000 </r>
       <r>    2.7020    1.0000 </r>
       <r>    3.0727    1.0000 </r>
       <r>    3.1662    1.0000 </r>
       <r>    3.5827    1.0000 </r>
       <r>    3.7934    1.0000 </r>
       <r>    3.8752    1.0000 </r>
       <r>    4.2588    0.9756 </r>
       <r>    4.2853    0.9628 </r>
       <r>    4.5155    0.5620 </r>
       <r>    4.5259    0.5329 </r>
       <r>    4.8484    0.0140 </r>
       <r>    5.3375    0.0000 </r>
       <r>    5.4450    0.0000 </r>
       <r>    8.9103    0.0000 </r>
       <r>    9.8979    0.0000 </r>
       <r>   10.0306    0.0000 </r>
       <r>   10.1317    0.0000 </r>
       <r>   10.6213    0.0000 </r>
       <r>   11.1463    0.0000 </r>
       <r>   11.3351    0.0000 </r>
       <r>   11.4555    0.0000 </r>
      </set>
      <set comment="kpoint 26">
       <r>  -65.3717    1.0000 </r>
       <r>  -65.3623    1.0000 </r>
       <r>  -65.3211    1.0000 </r>
       <r>  -65.3191    1.0000 </r>
       <r>  -65.3118    1.0000 </r>
       <r>  -65.2904    1.0000 </r>
       <r>  -48.3708    1.0000 </r>
       <r>  -48.3706    1.0000 </r>
       <r>  -48.3698    1.0000 </r>
       <r>  -48.3693    1.0000 </r>
       <r>  -48.3615    1.0000 </r>
       <r>  -48.3605    1.0000 </r>
       <r>   -8.9979    1.0000 </r>
       <r>   -8.9601    1.0000 </r>
       <r>   -8.7685    1.0000 </r>
       <r>   -8.4528    1.0000 </r>
       <r>   -0.8311    1.0000 </r>
       <r>   -0.7460    1.0000 </r>
       <r>   -0.6832    1.0000 </r>
       <r>   -0.6355    1.0000 </r>
       <r>   -0.1488    1.0000 </r>
       <r>    0.0164    1.0000 </r>
       <r>    0.1535    1.0000 </r>
       <r>    0.3975    1.0000 </r>
       <r>    0.4885    1.0000 </r>
       <r>    0.5037    1.0000 </r>
       <r>    0.6203    1.0000 </r>
       <r>    0.6785    1.0000 </r>
       <r>    1.7791    1.0000 </r>
       <r>    1.8231    1.0000 </r>
       <r>    1.9067    1.0000 </r>
       <r>    2.0218    1.0000 </r>
       <r>    2.1543    1.0000 </r>
       <r>    2.3407    1.0000 </r>
       <r>    2.5778    1.0000 </r>
       <r>    2.6674    1.0000 </r>
       <r>    3.0429    1.0000 </r>
       <r>    3.1809    1.0000 </r>
       <r>    3.6179    1.0000 </r>
       <r>    3.7750    1.0000 </r>
       <r>    3.8619    1.0000 </r>
       <r>    4.1870    0.9934 </r>
       <r>    4.3248    0.9337 </r>
       <r>    4.5671    0.4173 </r>
       <r>    4.6321    0.2517 </r>
       <r>    4.9015    0.0050 </r>
[...]
       <r>   -8.7710    1.0000 </r>
       <r>   -1.2071    1.0000 </r>
       <r>   -1.2071    1.0000 </r>
       <r>   -0.8922    1.0000 </r>
       <r>   -0.8921    1.0000 </r>
       <r>    0.1801    1.0000 </r>
       <r>    0.1802    1.0000 </r>
       <r>    0.3743    1.0000 </r>
       <r>    0.3744    1.0000 </r>
       <r>    0.4442    1.0000 </r>
       <r>    0.4443    1.0000 </r>
       <r>    0.5236    1.0000 </r>
       <r>    0.5236    1.0000 </r>
       <r>    1.8319    1.0000 </r>
       <r>    1.8320    1.0000 </r>
       <r>    2.0194    1.0000 </r>
       <r>    2.0194    1.0000 </r>
       <r>    2.4069    1.0000 </r>
       <r>    2.4069    1.0000 </r>
       <r>    2.7020    1.0000 </r>
       <r>    2.7020    1.0000 </r>
       <r>    3.1012    1.0000 </r>
       <r>    3.1012    1.0000 </r>
       <r>    3.5984    1.0000 </r>
       <r>    3.5985    1.0000 </r>
       <r>    4.2247    0.9865 </r>
       <r>    4.2247    0.9865 </r>
       <r>    4.6994    0.1261 </r>
       <r>    4.6995    0.1261 </r>
       <r>    5.1331    0.0000 </r>
       <r>    5.1332    0.0000 </r>
       <r>    5.4063    0.0000 </r>
       <r>    5.4063    0.0000 </r>
       <r>    8.9972    0.0000 </r>
       <r>    8.9973    0.0000 </r>
       <r>   10.0748    0.0000 </r>
       <r>   10.0750    0.0000 </r>
       <r>   11.3037    0.0000 </r>
       <r>   11.3042    0.0000 </r>
       <r>   11.7369    0.0000 </r>
       <r>   11.7372    0.0000 </r>
      </set>
      <set comment="kpoint 44">
       <r>  -65.3800    1.0000 </r>
       <r>  -65.3796    1.0000 </r>
       <r>  -65.3206    1.0000 </r>
       <r>  -65.3206    1.0000 </r>
       <r>  -65.3199    1.0000 </r>
       <r>  -65.3196    1.0000 </r>
       <r>  -48.3704    1.0000 </r>
       <r>  -48.3703    1.0000 </r>
       <r>  -48.3702    1.0000 </r>
       <r>  -48.3702    1.0000 </r>
       <r>  -48.3610    1.0000 </r>
       <r>  -48.3609    1.0000 </r>
       <r>   -8.7857    1.0000 </r>
       <r>   -8.7857    1.0000 </r>
       <r>   -8.7750    1.0000 </r>
       <r>   -8.7749    1.0000 </r>
       <r>   -1.1322    1.0000 </r>
       <r>   -1.1320    1.0000 </r>
       <r>   -0.9919    1.0000 </r>
       <r>   -0.9916    1.0000 </r>
       <r>    0.2486    1.0000 </r>
       <r>    0.2487    1.0000 </r>
       <r>    0.3322    1.0000 </r>
       <r>    0.3322    1.0000 </r>
       <r>    0.4534    1.0000 </r>
       <r>    0.4535    1.0000 </r>
       <r>    0.5029    1.0000 </r>
       <r>    0.5029    1.0000 </r>
       <r>    1.8300    1.0000 </r>
       <r>    1.8301    1.0000 </r>
       <r>    2.0156    1.0000 </r>
       <r>    2.0156    1.0000 </r>
       <r>    2.4205    1.0000 </r>
       <r>    2.4205    1.0000 </r>
       <r>    2.6592    1.0000 </r>
       <r>    2.6592    1.0000 </r>
       <r>    3.1333    1.0000 </r>
       <r>    3.1333    1.0000 </r>
       <r>    3.5736    1.0000 </r>
       <r>    3.5736    1.0000 </r>
       <r>    4.2756    0.9680 </r>
       <r>    4.2756    0.9680 </r>
       <r>    4.6683    0.1776 </r>
       <r>    4.6683    0.1776 </r>
       <r>    5.1101    0.0000 </r>
       <r>    5.1101    0.0000 </r>
       <r>    5.3985    0.0000 </r>
       <r>    5.3985    0.0000 </r>
       <r>    9.1243    0.0000 </r>
       <r>    9.1244    0.0000 </r>
       <r>    9.9162    0.0000 </r>
       <r>    9.9163    0.0000 </r>
       <r>   11.3807    0.0000 </r>
       <r>   11.3819    0.0000 </r>
       <r>   11.5456    0.0000 </r>
       <r>   11.5466    0.0000 </r>
      </set>
     </set>
    </set>
   </array>
  </eigenvalues>
  <separator name="orbital magnetization" >
   <v name="MAGDIPOLOUT">      0.00000000      0.00000000      0.00000000</v>
  </separator>
  <dos>
   <i name="efermi">      4.53752893 </i>
   <total>
    <array>
     <dimension dim="1">gridpoints</dimension>
     <dimension dim="2">spin</dimension>
     <field>energy</field>
     <field>total</field>
     <field>integrated</field>
     <set>
      <set comment="spin 1">
       <r>   -69.2618     0.0000     0.0000 </r>
       <r>   -68.9780     0.0000     0.0000 </r>
       <r>   -68.6942     0.0000     0.0000 </r>
       <r>   -68.4104     0.0000     0.0000 </r>
       <r>   -68.1267     0.0000     0.0000 </r>
       <r>   -67.8429     0.0000     0.0000 </r>
       <r>   -67.5591     0.0000     0.0000 </r>
       <r>   -67.2753     0.0000     0.0000 </r>
       <r>   -66.9916     0.0000     0.0000 </r>
       <r>   -66.7078     0.0000     0.0000 </r>
       <r>   -66.4240     0.0000     0.0000 </r>
       <r>   -66.1402     0.0000     0.0000 </r>
       <r>   -65.8565     0.0056     0.0016 </r>
       <r>   -65.5727     1.9740     0.5618 </r>
       <r>   -65.2889    24.0674     7.3915 </r>
       <r>   -65.0051    15.7497    11.8609 </r>
       <r>   -64.7214     0.4898    11.9999 </r>
       <r>   -64.4376     0.0005    12.0000 </r>
       <r>   -64.1538     0.0000    12.0000 </r>
       <r>   -63.8700     0.0000    12.0000 </r>
       <r>   -63.5863     0.0000    12.0000 </r>
       <r>   -63.3025     0.0000    12.0000 </r>
       <r>   -63.0187     0.0000    12.0000 </r>
       <r>   -62.7349     0.0000    12.0000 </r>
       <r>   -62.4512     0.0000    12.0000 </r>
       <r>   -62.1674     0.0000    12.0000 </r>
       <r>   -61.8836     0.0000    12.0000 </r>
       <r>   -61.5998     0.0000    12.0000 </r>
       <r>   -61.3161     0.0000    12.0000 </r>
       <r>   -61.0323     0.0000    12.0000 </r>
       <r>   -60.7485     0.0000    12.0000 </r>
       <r>   -60.4647     0.0000    12.0000 </r>
       <r>   -60.1810     0.0000    12.0000 </r>
       <r>   -59.8972     0.0000    12.0000 </r>
       <r>   -59.6134     0.0000    12.0000 </r>
       <r>   -59.3296     0.0000    12.0000 </r>
       <r>   -59.0459     0.0000    12.0000 </r>
       <r>   -58.7621     0.0000    12.0000 </r>
       <r>   -58.4783     0.0000    12.0000 </r>
       <r>   -58.1945     0.0000    12.0000 </r>
       <r>   -57.9108     0.0000    12.0000 </r>
       <r>   -57.6270     0.0000    12.0000 </r>
       <r>   -57.3432     0.0000    12.0000 </r>
       <r>   -57.0594     0.0000    12.0000 </r>
       <r>   -56.7757     0.0000    12.0000 </r>
       <r>   -56.4919     0.0000    12.0000 </r>
       <r>   -56.2081     0.0000    12.0000 </r>
       <r>   -55.9243     0.0000    12.0000 </r>
       <r>   -55.6406     0.0000    12.0000 </r>
       <r>   -55.3568     0.0000    12.0000 </r>
       <r>   -55.0730     0.0000    12.0000 </r>
       <r>   -54.7892     0.0000    12.0000 </r>
       <r>   -54.5055     0.0000    12.0000 </r>
       <r>   -54.2217     0.0000    12.0000 </r>
       <r>   -53.9379     0.0000    12.0000 </r>
       <r>   -53.6541     0.0000    12.0000 </r>
       <r>   -53.3704     0.0000    12.0000 </r>
       <r>   -53.0866     0.0000    12.0000 </r>
       <r>   -52.8028     0.0000    12.0000 </r>
       <r>   -52.5190     0.0000    12.0000 </r>
       <r>   -52.2353     0.0000    12.0000 </r>
       <r>   -51.9515     0.0000    12.0000 </r>
       <r>   -51.6677     0.0000    12.0000 </r>
       <r>   -51.3839     0.0000    12.0000 </r>
       <r>   -51.1002     0.0000    12.0000 </r>
       <r>   -50.8164     0.0000    12.0000 </r>
       <r>   -50.5326     0.0000    12.0000 </r>
       <r>   -50.2488     0.0000    12.0000 </r>
       <r>   -49.9651     0.0000    12.0000 </r>
       <r>   -49.6813     0.0000    12.0000 </r>
       <r>   -49.3975     0.0000    12.0000 </r>
       <r>   -49.1137     0.0000    12.0000 </r>
       <r>   -48.8300     0.0226    12.0064 </r>
       <r>   -48.5462     4.3257    13.2340 </r>
       <r>   -48.2624    28.2278    21.2443 </r>
       <r>   -47.9786     9.5831    23.9638 </r>
       <r>   -47.6949     0.1277    24.0000 </r>
       <r>   -47.4111     0.0000    24.0000 </r>
       <r>   -47.1273     0.0000    24.0000 </r>
       <r>   -46.8435     0.0000    24.0000 </r>
       <r>   -46.5598     0.0000    24.0000 </r>
       <r>   -46.2760     0.0000    24.0000 </r>
       <r>   -45.9922     0.0000    24.0000 </r>
       <r>   -45.7084     0.0000    24.0000 </r>
       <r>   -45.4247     0.0000    24.0000 </r>
       <r>   -45.1409     0.0000    24.0000 </r>
       <r>   -44.8571     0.0000    24.0000 </r>
       <r>   -44.5733     0.0000    24.0000 </r>
       <r>   -44.2895     0.0000    24.0000 </r>
       <r>   -44.0058     0.0000    24.0000 </r>
       <r>   -43.7220     0.0000    24.0000 </r>
       <r>   -43.4382     0.0000    24.0000 </r>
       <r>   -43.1544     0.0000    24.0000 </r>
       <r>   -42.8707     0.0000    24.0000 </r>
       <r>   -42.5869     0.0000    24.0000 </r>
       <r>   -42.3031     0.0000    24.0000 </r>
       <r>   -42.0193     0.0000    24.0000 </r>
       <r>   -41.7356     0.0000    24.0000 </r>
       <r>   -41.4518     0.0000    24.0000 </r>
       <r>   -41.1680     0.0000    24.0000 </r>
       <r>   -40.8842     0.0000    24.0000 </r>
       <r>   -40.6005     0.0000    24.0000 </r>
       <r>   -40.3167     0.0000    24.0000 </r>
       <r>   -40.0329     0.0000    24.0000 </r>
       <r>   -39.7491     0.0000    24.0000 </r>
       <r>   -39.4654     0.0000    24.0000 </r>
       <r>   -39.1816     0.0000    24.0000 </r>
       <r>   -38.8978     0.0000    24.0000 </r>
       <r>   -38.6140     0.0000    24.0000 </r>
       <r>   -38.3303     0.0000    24.0000 </r>
       <r>   -38.0465     0.0000    24.0000 </r>
       <r>   -37.7627     0.0000    24.0000 </r>
       <r>   -37.4789     0.0000    24.0000 </r>
       <r>   -37.1952     0.0000    24.0000 </r>
       <r>   -36.9114     0.0000    24.0000 </r>
       <r>   -36.6276     0.0000    24.0000 </r>
       <r>   -36.3438     0.0000    24.0000 </r>
       <r>   -36.0601     0.0000    24.0000 </r>
       <r>   -35.7763     0.0000    24.0000 </r>
       <r>   -35.4925     0.0000    24.0000 </r>
       <r>   -35.2087     0.0000    24.0000 </r>
       <r>   -34.9250     0.0000    24.0000 </r>
       <r>   -34.6412     0.0000    24.0000 </r>
       <r>   -34.3574     0.0000    24.0000 </r>
       <r>   -34.0736     0.0000    24.0000 </r>
       <r>   -33.7899     0.0000    24.0000 </r>
       <r>   -33.5061     0.0000    24.0000 </r>
       <r>   -33.2223     0.0000    24.0000 </r>
       <r>   -32.9385     0.0000    24.0000 </r>
       <r>   -32.6548     0.0000    24.0000 </r>
       <r>   -32.3710     0.0000    24.0000 </r>
       <r>   -32.0872     0.0000    24.0000 </r>
       <r>   -31.8034     0.0000    24.0000 </r>
       <r>   -31.5197     0.0000    24.0000 </r>
       <r>   -31.2359     0.0000    24.0000 </r>
       <r>   -30.9521     0.0000    24.0000 </r>
       <r>   -30.6683     0.0000    24.0000 </r>
       <r>   -30.3846     0.0000    24.0000 </r>
       <r>   -30.1008     0.0000    24.0000 </r>
       <r>   -29.8170     0.0000    24.0000 </r>
       <r>   -29.5332     0.0000    24.0000 </r>
       <r>   -29.2495     0.0000    24.0000 </r>
       <r>   -28.9657     0.0000    24.0000 </r>
       <r>   -28.6819     0.0000    24.0000 </r>
       <r>   -28.3981     0.0000    24.0000 </r>
       <r>   -28.1144     0.0000    24.0000 </r>
       <r>   -27.8306     0.0000    24.0000 </r>
       <r>   -27.5468     0.0000    24.0000 </r>
       <r>   -27.2630     0.0000    24.0000 </r>
       <r>   -26.9793     0.0000    24.0000 </r>
       <r>   -26.6955     0.0000    24.0000 </r>
       <r>   -26.4117     0.0000    24.0000 </r>
       <r>   -26.1279     0.0000    24.0000 </r>
       <r>   -25.8442     0.0000    24.0000 </r>
       <r>   -25.5604     0.0000    24.0000 </r>
       <r>   -25.2766     0.0000    24.0000 </r>
       <r>   -24.9928     0.0000    24.0000 </r>
       <r>   -24.7091     0.0000    24.0000 </r>
       <r>   -24.4253     0.0000    24.0000 </r>
       <r>   -24.1415     0.0000    24.0000 </r>
       <r>   -23.8577     0.0000    24.0000 </r>
       <r>   -23.5740     0.0000    24.0000 </r>
       <r>   -23.2902     0.0000    24.0000 </r>
       <r>   -23.0064     0.0000    24.0000 </r>
       <r>   -22.7226     0.0000    24.0000 </r>
       <r>   -22.4389     0.0000    24.0000 </r>
       <r>   -22.1551     0.0000    24.0000 </r>
       <r>   -21.8713     0.0000    24.0000 </r>
       <r>   -21.5875     0.0000    24.0000 </r>
       <r>   -21.3038     0.0000    24.0000 </r>
       <r>   -21.0200     0.0000    24.0000 </r>
       <r>   -20.7362     0.0000    24.0000 </r>
       <r>   -20.4524     0.0000    24.0000 </r>
       <r>   -20.1687     0.0000    24.0000 </r>
       <r>   -19.8849     0.0000    24.0000 </r>
       <r>   -19.6011     0.0000    24.0000 </r>
       <r>   -19.3173     0.0000    24.0000 </r>
       <r>   -19.0336     0.0000    24.0000 </r>
       <r>   -18.7498     0.0000    24.0000 </r>
       <r>   -18.4660     0.0000    24.0000 </r>
       <r>   -18.1822     0.0000    24.0000 </r>
       <r>   -17.8985     0.0000    24.0000 </r>
       <r>   -17.6147     0.0000    24.0000 </r>
       <r>   -17.3309     0.0000    24.0000 </r>
       <r>   -17.0471     0.0000    24.0000 </r>
       <r>   -16.7634     0.0000    24.0000 </r>
       <r>   -16.4796     0.0000    24.0000 </r>
       <r>   -16.1958     0.0000    24.0000 </r>
       <r>   -15.9120     0.0000    24.0000 </r>
       <r>   -15.6283     0.0000    24.0000 </r>
       <r>   -15.3445     0.0000    24.0000 </r>
       <r>   -15.0607     0.0000    24.0000 </r>
       <r>   -14.7769     0.0000    24.0000 </r>
       <r>   -14.4932     0.0000    24.0000 </r>
       <r>   -14.2094     0.0000    24.0000 </r>
       <r>   -13.9256     0.0000    24.0000 </r>
       <r>   -13.6418     0.0000    24.0000 </r>
       <r>   -13.3581     0.0000    24.0000 </r>
       <r>   -13.0743     0.0000    24.0000 </r>
       <r>   -12.7905     0.0000    24.0000 </r>
       <r>   -12.5067     0.0000    24.0000 </r>
       <r>   -12.2230     0.0000    24.0000 </r>
       <r>   -11.9392     0.0000    24.0000 </r>
       <r>   -11.6554     0.0000    24.0000 </r>
       <r>   -11.3716     0.0000    24.0000 </r>
       <r>   -11.0879     0.0000    24.0000 </r>
       <r>   -10.8041     0.0000    24.0000 </r>
       <r>   -10.5203     0.0000    24.0000 </r>
       <r>   -10.2365     0.0001    24.0000 </r>
       <r>    -9.9528     0.0262    24.0074 </r>
       <r>    -9.6690     0.4431    24.1332 </r>
       <r>    -9.3852     0.6750    24.3247 </r>
       <r>    -9.1014     2.1103    24.9236 </r>
       <r>    -8.8177     8.6950    27.3910 </r>
       <r>    -8.5339    10.6964    30.4264 </r>
       <r>    -8.2501     5.1045    31.8749 </r>
       <r>    -7.9663     0.4392    31.9995 </r>
       <r>    -7.6826     0.0016    32.0000 </r>
       <r>    -7.3988     0.0000    32.0000 </r>
       <r>    -7.1150     0.0000    32.0000 </r>
       <r>    -6.8312     0.0000    32.0000 </r>
       <r>    -6.5475     0.0000    32.0000 </r>
       <r>    -6.2637     0.0000    32.0000 </r>
       <r>    -5.9799     0.0000    32.0000 </r>
       <r>    -5.6961     0.0000    32.0000 </r>
       <r>    -5.4124     0.0000    32.0000 </r>
       <r>    -5.1286     0.0000    32.0000 </r>
       <r>    -4.8448     0.0000    32.0000 </r>
       <r>    -4.5610     0.0000    32.0000 </r>
       <r>    -4.2773     0.0000    32.0000 </r>
       <r>    -3.9935     0.0000    32.0000 </r>
       <r>    -3.7097     0.0000    32.0000 </r>
       <r>    -3.4259     0.0000    32.0000 </r>
       <r>    -3.1422     0.0000    32.0000 </r>
       <r>    -2.8584     0.0000    32.0000 </r>
       <r>    -2.5746     0.0000    32.0000 </r>
       <r>    -2.2908     0.0000    32.0000 </r>
       <r>    -2.0071     0.0000    32.0000 </r>
       <r>    -1.7233     0.0069    32.0020 </r>
       <r>    -1.4395     0.7921    32.2267 </r>
       <r>    -1.1557     5.3671    33.7498 </r>
       <r>    -0.8720     7.2380    35.8037 </r>
       <r>    -0.5882     9.2996    38.4428 </r>
       <r>    -0.3044     5.7982    40.0881 </r>
       <r>    -0.0206     4.0703    41.2432 </r>
       <r>     0.2631    11.7882    44.5884 </r>
       <r>     0.5469    23.1858    51.1679 </r>
       <r>     0.8307    14.7190    55.3448 </r>
       <r>     1.1145     2.2709    55.9893 </r>
       <r>     1.3983     0.0695    56.0090 </r>
       <r>     1.6820     2.8691    56.8231 </r>
       <r>     1.9658    15.8696    61.3265 </r>
       <r>     2.2496    15.0370    65.5937 </r>
       <r>     2.5334     9.8815    68.3978 </r>
       <r>     2.8171    10.7193    71.4397 </r>
       <r>     3.1009    11.7243    74.7668 </r>
       <r>     3.3847     5.2168    76.2472 </r>
       <r>     3.6685     7.7839    78.4561 </r>
       <r>     3.9522    11.1714    81.6262 </r>
       <r>     4.2360     7.9962    83.8953 </r>
       <r>     4.5198     6.9326    85.8627 </r>
       <r>     4.8036     9.0756    88.4381 </r>
       <r>     5.0873     8.7681    90.9263 </r>
       <r>     5.3711     9.3933    93.5919 </r>
       <r>     5.6549     5.3236    95.1025 </r>
       <r>     5.9387     1.3345    95.4812 </r>
       <r>     6.2224     1.3084    95.8525 </r>
       <r>     6.5062     0.5051    95.9959 </r>
       <r>     6.7900     0.0148    96.0001 </r>
       <r>     7.0738     0.0484    96.0138 </r>
       <r>     7.3575     0.3204    96.1047 </r>
       <r>     7.6413     0.1229    96.1396 </r>
       <r>     7.9251     0.1444    96.1806 </r>
       <r>     8.2089     0.2726    96.2579 </r>
       <r>     8.4926     0.7320    96.4657 </r>
       <r>     8.7764     2.9108    97.2917 </r>
       <r>     9.0602     4.5977    98.5964 </r>
       <r>     9.3440     3.4664    99.5800 </r>
       <r>     9.6277     2.5162   100.2941 </r>
       <r>     9.9115     4.2898   101.5114 </r>
       <r>    10.1953     4.2817   102.7265 </r>
       <r>    10.4791     4.3837   103.9705 </r>
       <r>    10.7628     5.9678   105.6640 </r>
       <r>    11.0466     4.0617   106.8166 </r>
       <r>    11.3304     5.2538   108.3075 </r>
       <r>    11.6142     7.1620   110.3399 </r>
       <r>    11.8979     4.1682   111.5227 </r>
       <r>    12.1817     1.5638   111.9665 </r>
       <r>    12.4655     0.1177   111.9999 </r>
       <r>    12.7493     0.0004   112.0000 </r>
       <r>    13.0330     0.0000   112.0000 </r>
       <r>    13.3168     0.0000   112.0000 </r>
       <r>    13.6006     0.0000   112.0000 </r>
       <r>    13.8844     0.0000   112.0000 </r>
       <r>    14.1681     0.0000   112.0000 </r>
       <r>    14.4519     0.0000   112.0000 </r>
       <r>    14.7357     0.0000   112.0000 </r>
       <r>    15.0195     0.0000   112.0000 </r>
       <r>    15.3032     0.0000   112.0000 </r>
       <r>    15.5870     0.0000   112.0000 </r>
       <r>    15.8708     0.0000   112.0000 </r>
      </set>
     </set>
    </array>
   </total>
  </dos>
 </calculation>
 <structure name="finalpos" >
  <crystal>
   <varray name="basis" >
    <v>      -2.64450000       2.64450000       5.21150000 </v>
    <v>       2.64450000      -2.64450000       5.21150000 </v>
    <v>       2.64450000       2.64450000      -5.21150000 </v>
   </varray>
   <i name="volume">    145.78400469 </i>
   <varray name="rec_basis" >
    <v>       0.00000000       0.18907166       0.09594167 </v>
    <v>       0.18907166       0.00000000       0.09594167 </v>
    <v>       0.18907166       0.18907166       0.00000000 </v>
   </varray>
  </crystal>
  <varray name="positions" >
   <v>       0.00000000       0.00000000       0.00000000 </v>
   <v>       0.75000000       0.25000000       0.50000000 </v>
   <v>       0.50000000       0.50000000       0.00000000 </v>
   <v>       0.25000000       0.75000000       0.50000000 </v>
   <v>       0.37500000       0.38240000       0.50740000 </v>
   <v>       0.87500000       0.86760000       0.49260000 </v>
   <v>       0.61760000       0.12500000       0.99260000 </v>
   <v>       0.13240000       0.62500000       0.00740000 </v>
  </varray>
 </structure>
</modeling>
