unknown system                          
           1
    -2.644500    2.644500    5.211500
     2.644500   -2.644500    5.211500
     2.644500    2.644500   -5.211500
   Cu   Fe   S 
   2   2   4
Direct configuration=     1
   0.00000000  0.00000000  0.00000000
   0.75000000  0.25000000  0.50000000
   0.50000000  0.50000000  0.00000000
   0.25000000  0.75000000  0.50000000
   0.37500000  0.38240000  0.50740000
   0.87500000  0.86760000  0.49260000
   0.61760000  0.12500000  0.99260000
   0.13240000  0.62500000  0.00740000
