unknown system                          
   3.61000000000000     
     1.000000    0.000000    0.000000
     0.000000    1.000000    0.000000
     0.000000    0.000000    1.000000
   Cu
     1
Direct
  0.000000  0.000000  0.000000
 
   32   32   32
  1884.6      1764.1      1437.7      1000.5      574.96      261.31      94.856      38.876      21.955      12.372    
  7.4597      5.2881      4.1360      3.1001      2.3445      2.1443      2.1797      2.1443      2.3445      3.1001    
  4.1360      5.2881      7.4597      12.372      21.955      38.876      94.856      261.31      574.96      1000.5    
  1437.7      1764.1      1764.1      1649.6      1340.3      927.86      529.19      238.54      86.989      37.173    
  21.176      12.008      7.3028      5.2016      4.0704      3.0589      2.3219      2.1171      2.1444      2.1171    
  2.3219      3.0589      4.0704      5.2016      7.3028      12.008      21.176      37.173      86.989      238.54    
  529.19      927.86      1340.3      1649.6      1437.7      1340.3      1078.9      735.06      409.95      180.93    
  68.019      32.916      19.034      11.007      6.8657      4.9571      3.8843      2.9408      2.2565      2.0414    
  2.0480      2.0414      2.2565      2.9408      3.8843      4.9571      6.8657      11.007      19.034      32.916    
  68.019      180.93      409.95      735.06      1078.9      1340.3      1000.5      927.86      735.06      487.51    
  262.65      114.16      48.096      27.247      16.034      9.5981      6.2345      4.5924      3.6051      2.7601    
  2.1534      1.9310      1.9129      1.9310      2.1534      2.7601      3.6051      4.5924      6.2345      9.5981    
  16.034      27.247      48.096      114.16      262.65      487.51      735.06      927.86      574.96      529.19    
  409.95      262.65      137.46      63.343      34.250      21.067      12.802      8.0629      5.5121      4.1524    
  3.2655      2.5336      2.0179      1.8000      1.7622      1.8000      2.0179      2.5336      3.2655      4.1524    
  5.5121      8.0629      12.802      21.067      34.250      63.343      137.46      262.65      409.95      529.19    
  261.31      238.54      180.93      114.16      63.343      37.286      24.354      15.435      9.8709      6.6301    
  4.7828      3.6758      2.8943      2.2766      1.8547      1.6572      1.6107      1.6572      1.8547      2.2766    
  2.8943      3.6758      4.7828      6.6301      9.8709      15.435      24.354      37.286      63.343      114.16    
  180.93      238.54      94.856      86.989      68.019      48.096      34.250      24.354      16.479      10.996    
  7.5297      5.4179      4.0940      3.1907      2.5140      2.0041      1.6712      1.5078      1.4639      1.5078    
  1.6712      2.0041      2.5140      3.1907      4.0940      5.4179      7.5297      10.996      16.479      24.354    
  34.250      48.096      68.019      86.989      38.876      37.173      32.916      27.247      21.067      15.435    
  10.996      7.8709      5.8070      4.4355      3.4605      2.7173      2.1445      1.7336      1.4805      1.3577    
  1.3236      1.3577      1.4805      1.7336      2.1445      2.7173      3.4605      4.4355      5.8070      7.8709    
  10.996      15.435      21.067      27.247      32.916      37.173      21.955      21.176      19.034      16.034    
  12.802      9.8709      7.5297      5.8070      4.5653      3.6304      2.8816      2.2727      1.8045      1.4844    
  1.2994      1.2146      1.1919      1.2146      1.2994      1.4844      1.8045      2.2727      2.8816      3.6304    
  4.5653      5.8070      7.5297      9.8709      12.802      16.034      19.034      21.176      12.372      12.008    
  11.007      9.5981      8.0629      6.6301      5.4179      4.4355      3.6304      2.9467      2.3591      1.8744    
  1.5104      1.2722      1.1419      1.0858      1.0714      1.0858      1.1419      1.2722      1.5104      1.8744    
  2.3591      2.9467      3.6304      4.4355      5.4179      6.6301      8.0629      9.5981      11.007      12.008    
  7.4597      7.3028      6.8657      6.2345      5.5121      4.7828      4.0940      3.4605      2.8816      2.3591    
  1.9052      1.5386      1.2724      1.1035      1.0128     0.97359     0.96337     0.97359      1.0128      1.1035    
  1.2724      1.5386      1.9052      2.3591      2.8816      3.4605      4.0940      4.7828      5.5121      6.2345    
  6.8657      7.3028      5.2881      5.2016      4.9571      4.5924      4.1524      3.6758      3.1907      2.7173    
  2.2727      1.8744      1.5386      1.2772      1.0921     0.97440     0.90785     0.87565     0.86624     0.87565    
 0.90785     0.97440      1.0921      1.2772      1.5386      1.8744      2.2727      2.7173      3.1907      3.6758    
  4.1524      4.5924      4.9571      5.2016      4.1360      4.0704      3.8843      3.6051      3.2655      2.8943    
  2.5140      2.1445      1.8045      1.5104      1.2724      1.0921     0.96332     0.87588     0.81981     0.78831    
 0.77810     0.78831     0.81981     0.87588     0.96332      1.0921      1.2724      1.5104      1.8045      2.1445    
  2.5140      2.8943      3.2655      3.6051      3.8843      4.0704      3.1001      3.0589      2.9408      2.7601    
  2.5336      2.2766      2.0041      1.7336      1.4844      1.2722      1.1035     0.97440     0.87588     0.80043    
 0.74529     0.71118     0.69960     0.71118     0.74529     0.80043     0.87588     0.97440      1.1035      1.2722    
  1.4844      1.7336      2.0041      2.2766      2.5336      2.7601      2.9408      3.0589      2.3445      2.3219    
  2.2565      2.1534      2.0179      1.8547      1.6712      1.4805      1.2994      1.1419      1.0128     0.90785    
 0.81981     0.74529     0.68652     0.64850     0.63533     0.64850     0.68652     0.74529     0.81981     0.90785    
  1.0128      1.1419      1.2994      1.4805      1.6712      1.8547      2.0179      2.1534      2.2565      2.3219    
  2.1443      2.1171      2.0414      1.9310      1.8000      1.6572      1.5078      1.3577      1.2146      1.0858    
 0.97359     0.87565     0.78831     0.71118     0.64850     0.60700     0.59243     0.60700     0.64850     0.71118    
 0.78831     0.87565     0.97359      1.0858      1.2146      1.3577      1.5078      1.6572      1.8000      1.9310    
  2.0414      2.1171      2.1797      2.1444      2.0480      1.9129      1.7622      1.6107      1.4639      1.3236    
  1.1919      1.0714     0.96337     0.86624     0.77810     0.69960     0.63533     0.59243     0.57728     0.59243    
 0.63533     0.69960     0.77810     0.86624     0.96337      1.0714      1.1919      1.3236      1.4639      1.6107    
  1.7622      1.9129      2.0480      2.1444      2.1443      2.1171      2.0414      1.9310      1.8000      1.6572    
  1.5078      1.3577      1.2146      1.0858     0.97359     0.87565     0.78831     0.71118     0.64850     0.60700    
 0.59243     0.60700     0.64850     0.71118     0.78831     0.87565     0.97359      1.0858      1.2146      1.3577    
  1.5078      1.6572      1.8000      1.9310      2.0414      2.1171      2.3445      2.3219      2.2565      2.1534    
  2.0179      1.8547      1.6712      1.4805      1.2994      1.1419      1.0128     0.90785     0.81981     0.74529    
 0.68652     0.64850     0.63533     0.64850     0.68652     0.74529     0.81981     0.90785      1.0128      1.1419    
  1.2994      1.4805      1.6712      1.8547      2.0179      2.1534      2.2565      2.3219      3.1001      3.0589    
  2.9408      2.7601      2.5336      2.2766      2.0041      1.7336      1.4844      1.2722      1.1035     0.97440    
 0.87588     0.80043     0.74529     0.71118     0.69960     0.71118     0.74529     0.80043     0.87588     0.97440    
  1.1035      1.2722      1.4844      1.7336      2.0041      2.2766      2.5336      2.7601      2.9408      3.0589    
  4.1360      4.0704      3.8843      3.6051      3.2655      2.8943      2.5140      2.1445      1.8045      1.5104    
  1.2724      1.0921     0.96332     0.87588     0.81981     0.78831     0.77810     0.78831     0.81981     0.87588    
 0.96332      1.0921      1.2724      1.5104      1.8045      2.1445      2.5140      2.8943      3.2655      3.6051    
  3.8843      4.0704      5.2881      5.2016      4.9571      4.5924      4.1524      3.6758      3.1907      2.7173    
  2.2727      1.8744      1.5386      1.2772      1.0921     0.97440     0.90785     0.87565     0.86624     0.87565    
 0.90785     0.97440      1.0921      1.2772      1.5386      1.8744      2.2727      2.7173      3.1907      3.6758    
  4.1524      4.5924      4.9571      5.2016      7.4597      7.3028      6.8657      6.2345      5.5121      4.7828    
  4.0940      3.4605      2.8816      2.3591      1.9052      1.5386      1.2724      1.1035      1.0128     0.97359    
 0.96337     0.97359      1.0128      1.1035      1.2724      1.5386      1.9052      2.3591      2.8816      3.4605    
  4.0940      4.7828      5.5121      6.2345      6.8657      7.3028      12.372      12.008      11.007      9.5981    
  8.0629      6.6301      5.4179      4.4355      3.6304      2.9467      2.3591      1.8744      1.5104      1.2722    
  1.1419      1.0858      1.0714      1.0858      1.1419      1.2722      1.5104      1.8744      2.3591      2.9467    
  3.6304      4.4355      5.4179      6.6301      8.0629      9.5981      11.007      12.008      21.955      21.176    
  19.034      16.034      12.802      9.8709      7.5297      5.8070      4.5653      3.6304      2.8816      2.2727    
  1.8045      1.4844      1.2994      1.2146      1.1919      1.2146      1.2994      1.4844      1.8045      2.2727    
  2.8816      3.6304      4.5653      5.8070      7.5297      9.8709      12.802      16.034      19.034      21.176    
  38.876      37.173      32.916      27.247      21.067      15.435      10.996      7.8709      5.8070      4.4355    
  3.4605      2.7173      2.1445      1.7336      1.4805      1.3577      1.3236      1.3577      1.4805      1.7336    
  2.1445      2.7173      3.4605      4.4355      5.8070      7.8709      10.996      15.435      21.067      27.247    
  32.916      37.173      94.856      86.989      68.019      48.096      34.250      24.354      16.479      10.996    
  7.5297      5.4179      4.0940      3.1907      2.5140      2.0041      1.6712      1.5078      1.4639      1.5078    
  1.6712      2.0041      2.5140      3.1907      4.0940      5.4179      7.5297      10.996      16.479      24.354    
  34.250      48.096      68.019      86.989      261.31      238.54      180.93      114.16      63.343      37.286    
  24.354      15.435      9.8709      6.6301      4.7828      3.6758      2.8943      2.2766      1.8547      1.6572    
  1.6107      1.6572      1.8547      2.2766      2.8943      3.6758      4.7828      6.6301      9.8709      15.435    
  24.354      37.286      63.343      114.16      180.93      238.54      574.96      529.19      409.95      262.65    
  137.46      63.343      34.250      21.067      12.802      8.0629      5.5121      4.1524      3.2655      2.5336    
  2.0179      1.8000      1.7622      1.8000      2.0179      2.5336      3.2655      4.1524      5.5121      8.0629    
  12.802      21.067      34.250      63.343      137.46      262.65      409.95      529.19      1000.5      927.86    
  735.06      487.51      262.65      114.16      48.096      27.247      16.034      9.5981      6.2345      4.5924    
  3.6051      2.7601      2.1534      1.9310      1.9129      1.9310      2.1534      2.7601      3.6051      4.5924    
  6.2345      9.5981      16.034      27.247      48.096      114.16      262.65      487.51      735.06      927.86    
  1437.7      1340.3      1078.9      735.06      409.95      180.93      68.019      32.916      19.034      11.007    
  6.8657      4.9571      3.8843      2.9408      2.2565      2.0414      2.0480      2.0414      2.2565      2.9408    
  3.8843      4.9571      6.8657      11.007      19.034      32.916      68.019      180.93      409.95      735.06    
  1078.9      1340.3      1764.1      1649.6      1340.3      927.86      529.19      238.54      86.989      37.173    
  21.176      12.008      7.3028      5.2016      4.0704      3.0589      2.3219      2.1171      2.1444      2.1171    
  2.3219      3.0589      4.0704      5.2016      7.3028      12.008      21.176      37.173      86.989      238.54    
  529.19      927.86      1340.3      1649.6      1764.1      1649.6      1340.3      927.86      529.19      238.54    
  86.989      37.173      21.176      12.008      7.3028      5.2016      4.0704      3.0589      2.3219      2.1171    
  2.1444      2.1171      2.3219      3.0589      4.0704      5.2016      7.3028      12.008      21.176      37.173    
  86.989      238.54      529.19      927.86      1340.3      1649.6      1649.6      1541.1      1248.2      859.54    
  486.55      217.63      79.938      35.633      20.432      11.661      7.1524      5.1182      4.0068      3.0186    
  2.2995      2.0906      2.1105      2.0906      2.2995      3.0186      4.0068      5.1182      7.1524      11.661    
  20.432      35.633      79.938      217.63      486.55      859.54      1248.2      1541.1      1340.3      1248.2    
  1001.6      678.69      375.73      164.92      63.019      31.685      18.383      10.703      6.7326      4.8818    
  3.8264      2.9032      2.2347      2.0168      2.0175      2.0168      2.2347      2.9032      3.8264      4.8818    
  6.7326      10.703      18.383      31.685      63.019      164.92      375.73      678.69      1001.6      1248.2    
  927.86      859.54      678.69      447.71      239.72      104.33      45.375      26.250      15.512      9.3541    
  6.1241      4.5274      3.5545      2.7261      2.1326      1.9093      1.8872      1.9093      2.1326      2.7261    
  3.5545      4.5274      6.1241      9.3541      15.512      26.250      45.375      104.33      239.72      447.71    
  678.69      859.54      529.19      486.55      375.73      239.72      125.39      58.869      32.939      20.328    
  12.418      7.8798      5.4240      4.0972      3.2221      2.5032      1.9981      1.7811      1.7414      1.7811    
  1.9981      2.5032      3.2221      4.0972      5.4240      7.8798      12.418      20.328      32.939      58.869    
  125.39      239.72      375.73      486.55      238.54      217.63      164.92      104.33      58.869      35.732    
  23.472      14.935      9.6087      6.4986      4.7126      3.6284      2.8568      2.2495      1.8360      1.6409    
  1.5941      1.6409      1.8360      2.2495      2.8568      3.6284      4.7126      6.4986      9.6087      14.935    
  23.472      35.732      58.869      104.33      164.92      217.63      86.989      79.938      63.019      45.375    
  32.939      23.472      15.932      10.684      7.3592      5.3242      4.0368      3.1492      2.4815      1.9801    
  1.6540      1.4937      1.4504      1.4937      1.6540      1.9801      2.4815      3.1492      4.0368      5.3242    
  7.3592      10.684      15.932      23.472      32.939      45.375      63.019      79.938      37.173      35.633    
  31.685      26.250      20.328      14.935      10.684      7.6854      5.6972      4.3666      3.4126      2.6809    
  2.1165      1.7128      1.4651      1.3453      1.3121      1.3453      1.4651      1.7128      2.1165      2.6809    
  3.4126      4.3666      5.6972      7.6854      10.684      14.935      20.328      26.250      31.685      35.633    
  21.176      20.432      18.383      15.512      12.418      9.6087      7.3592      5.6972      4.4916      3.5775    
  2.8414      2.2418      1.7812      1.4671      1.2862      1.2037      1.1816      1.2037      1.2862      1.4671    
  1.7812      2.2418      2.8414      3.5775      4.4916      5.6972      7.3592      9.6087      12.418      15.512    
  18.383      20.432      12.008      11.661      10.703      9.3541      7.8798      6.4986      5.3242      4.3666    
  3.5775      2.9049      2.3262      1.8494      1.4919      1.2583      1.1308      1.0759      1.0620      1.0759    
  1.1308      1.2583      1.4919      1.8494      2.3262      2.9049      3.5775      4.3666      5.3242      6.4986    
  7.8798      9.3541      10.703      11.661      7.3028      7.1524      6.7326      6.1241      5.4240      4.7126    
  4.0368      3.4126      2.8414      2.3262      1.8796      1.5196      1.2582      1.0924      1.0033     0.96456    
 0.95443     0.96456      1.0033      1.0924      1.2582      1.5196      1.8796      2.3262      2.8414      3.4126    
  4.0368      4.7126      5.4240      6.1241      6.7326      7.1524      5.2016      5.1182      4.8818      4.5274    
  4.0972      3.6284      3.1492      2.6809      2.2418      1.8494      1.5196      1.2630      1.0813     0.96538    
 0.89946     0.86733     0.85788     0.86733     0.89946     0.96538      1.0813      1.2630      1.5196      1.8494    
  2.2418      2.6809      3.1492      3.6284      4.0972      4.5274      4.8818      5.1182      4.0704      4.0068    
  3.8264      3.5545      3.2221      2.8568      2.4815      2.1165      1.7812      1.4919      1.2582      1.0813    
 0.95461     0.86817     0.81240     0.78089     0.77064     0.78089     0.81240     0.86817     0.95461      1.0813    
  1.2582      1.4919      1.7812      2.1165      2.4815      2.8568      3.2221      3.5545      3.8264      4.0068    
  3.0589      3.0186      2.9032      2.7261      2.5032      2.2495      1.9801      1.7128      1.4671      1.2583    
  1.0924     0.96538     0.86817     0.79353     0.73883     0.70489     0.69335     0.70489     0.73883     0.79353    
 0.86817     0.96538      1.0924      1.2583      1.4671      1.7128      1.9801      2.2495      2.5032      2.7261    
  2.9032      3.0186      2.3219      2.2995      2.2347      2.1326      1.9981      1.8360      1.6540      1.4651    
  1.2862      1.1308      1.0033     0.89946     0.81240     0.73883     0.68087     0.64335     0.63035     0.64335    
 0.68087     0.73883     0.81240     0.89946      1.0033      1.1308      1.2862      1.4651      1.6540      1.8360    
  1.9981      2.1326      2.2347      2.2995      2.1171      2.0906      2.0168      1.9093      1.7811      1.6409    
  1.4937      1.3453      1.2037      1.0759     0.96456     0.86733     0.78089     0.70489     0.64335     0.60267    
 0.58839     0.60267     0.64335     0.70489     0.78089     0.86733     0.96456      1.0759      1.2037      1.3453    
  1.4937      1.6409      1.7811      1.9093      2.0168      2.0906      2.1444      2.1105      2.0175      1.8872    
  1.7414      1.5941      1.4504      1.3121      1.1816      1.0620     0.95443     0.85788     0.77064     0.69335    
 0.63035     0.58839     0.57359     0.58839     0.63035     0.69335     0.77064     0.85788     0.95443      1.0620    
  1.1816      1.3121      1.4504      1.5941      1.7414      1.8872      2.0175      2.1105      2.1171      2.0906    
  2.0168      1.9093      1.7811      1.6409      1.4937      1.3453      1.2037      1.0759     0.96456     0.86733    
 0.78089     0.70489     0.64335     0.60267     0.58839     0.60267     0.64335     0.70489     0.78089     0.86733    
 0.96456      1.0759      1.2037      1.3453      1.4937      1.6409      1.7811      1.9093      2.0168      2.0906    
  2.3219      2.2995      2.2347      2.1326      1.9981      1.8360      1.6540      1.4651      1.2862      1.1308    
  1.0033     0.89946     0.81240     0.73883     0.68087     0.64335     0.63035     0.64335     0.68087     0.73883    
 0.81240     0.89946      1.0033      1.1308      1.2862      1.4651      1.6540      1.8360      1.9981      2.1326    
  2.2347      2.2995      3.0589      3.0186      2.9032      2.7261      2.5032      2.2495      1.9801      1.7128    
  1.4671      1.2583      1.0924     0.96538     0.86817     0.79353     0.73883     0.70489     0.69335     0.70489    
 0.73883     0.79353     0.86817     0.96538      1.0924      1.2583      1.4671      1.7128      1.9801      2.2495    
  2.5032      2.7261      2.9032      3.0186      4.0704      4.0068      3.8264      3.5545      3.2221      2.8568    
  2.4815      2.1165      1.7812      1.4919      1.2582      1.0813     0.95461     0.86817     0.81240     0.78089    
 0.77064     0.78089     0.81240     0.86817     0.95461      1.0813      1.2582      1.4919      1.7812      2.1165    
  2.4815      2.8568      3.2221      3.5545      3.8264      4.0068      5.2016      5.1182      4.8818      4.5274    
  4.0972      3.6284      3.1492      2.6809      2.2418      1.8494      1.5196      1.2630      1.0813     0.96538    
 0.89946     0.86733     0.85788     0.86733     0.89946     0.96538      1.0813      1.2630      1.5196      1.8494    
  2.2418      2.6809      3.1492      3.6284      4.0972      4.5274      4.8818      5.1182      7.3028      7.1524    
  6.7326      6.1241      5.4240      4.7126      4.0368      3.4126      2.8414      2.3262      1.8796      1.5196    
  1.2582      1.0924      1.0033     0.96456     0.95443     0.96456      1.0033      1.0924      1.2582      1.5196    
  1.8796      2.3262      2.8414      3.4126      4.0368      4.7126      5.4240      6.1241      6.7326      7.1524    
  12.008      11.661      10.703      9.3541      7.8798      6.4986      5.3242      4.3666      3.5775      2.9049    
  2.3262      1.8494      1.4919      1.2583      1.1308      1.0759      1.0620      1.0759      1.1308      1.2583    
  1.4919      1.8494      2.3262      2.9049      3.5775      4.3666      5.3242      6.4986      7.8798      9.3541    
  10.703      11.661      21.176      20.432      18.383      15.512      12.418      9.6087      7.3592      5.6972    
  4.4916      3.5775      2.8414      2.2418      1.7812      1.4671      1.2862      1.2037      1.1816      1.2037    
  1.2862      1.4671      1.7812      2.2418      2.8414      3.5775      4.4916      5.6972      7.3592      9.6087    
  12.418      15.512      18.383      20.432      37.173      35.633      31.685      26.250      20.328      14.935    
  10.684      7.6854      5.6972      4.3666      3.4126      2.6809      2.1165      1.7128      1.4651      1.3453    
  1.3121      1.3453      1.4651      1.7128      2.1165      2.6809      3.4126      4.3666      5.6972      7.6854    
  10.684      14.935      20.328      26.250      31.685      35.633      86.989      79.938      63.019      45.375    
  32.939      23.472      15.932      10.684      7.3592      5.3242      4.0368      3.1492      2.4815      1.9801    
  1.6540      1.4937      1.4504      1.4937      1.6540      1.9801      2.4815      3.1492      4.0368      5.3242    
  7.3592      10.684      15.932      23.472      32.939      45.375      63.019      79.938      238.54      217.63    
  164.92      104.33      58.869      35.732      23.472      14.935      9.6087      6.4986      4.7126      3.6284    
  2.8568      2.2495      1.8360      1.6409      1.5941      1.6409      1.8360      2.2495      2.8568      3.6284    
  4.7126      6.4986      9.6087      14.935      23.472      35.732      58.869      104.33      164.92      217.63    
  529.19      486.55      375.73      239.72      125.39      58.869      32.939      20.328      12.418      7.8798    
  5.4240      4.0972      3.2221      2.5032      1.9981      1.7811      1.7414      1.7811      1.9981      2.5032    
  3.2221      4.0972      5.4240      7.8798      12.418      20.328      32.939      58.869      125.39      239.72    
  375.73      486.55      927.86      859.54      678.69      447.71      239.72      104.33      45.375      26.250    
  15.512      9.3541      6.1241      4.5274      3.5545      2.7261      2.1326      1.9093      1.8872      1.9093    
  2.1326      2.7261      3.5545      4.5274      6.1241      9.3541      15.512      26.250      45.375      104.33    
  239.72      447.71      678.69      859.54      1340.3      1248.2      1001.6      678.69      375.73      164.92    
  63.019      31.685      18.383      10.703      6.7326      4.8818      3.8264      2.9032      2.2347      2.0168    
  2.0175      2.0168      2.2347      2.9032      3.8264      4.8818      6.7326      10.703      18.383      31.685    
  63.019      164.92      375.73      678.69      1001.6      1248.2      1649.6      1541.1      1248.2      859.54    
  486.55      217.63      79.938      35.633      20.432      11.661      7.1524      5.1182      4.0068      3.0186    
  2.2995      2.0906      2.1105      2.0906      2.2995      3.0186      4.0068      5.1182      7.1524      11.661    
  20.432      35.633      79.938      217.63      486.55      859.54      1248.2      1541.1      1437.7      1340.3    
  1078.9      735.06      409.95      180.93      68.019      32.916      19.034      11.007      6.8657      4.9571    
  3.8843      2.9408      2.2565      2.0414      2.0480      2.0414      2.2565      2.9408      3.8843      4.9571    
  6.8657      11.007      19.034      32.916      68.019      180.93      409.95      735.06      1078.9      1340.3    
  1340.3      1248.2      1001.6      678.69      375.73      164.92      63.019      31.685      18.383      10.703    
  6.7326      4.8818      3.8264      2.9032      2.2347      2.0168      2.0175      2.0168      2.2347      2.9032    
  3.8264      4.8818      6.7326      10.703      18.383      31.685      63.019      164.92      375.73      678.69    
  1001.6      1248.2      1078.9      1001.6      795.95      530.64      287.66      125.04      51.169      28.293    
  16.590      9.8645      6.3591      4.6667      3.6609      2.7950      2.1716      1.9485      1.9340      1.9485    
  2.1716      2.7950      3.6609      4.6667      6.3591      9.8645      16.590      28.293      51.169      125.04    
  287.66      530.64      795.95      1001.6      735.06      678.69      530.64      344.61      181.72      80.435    
  38.926      23.499      14.076      8.6777      5.8119      4.3399      3.4088      2.6276      2.0719      1.8483    
  1.8165      1.8483      2.0719      2.6276      3.4088      4.3399      5.8119      8.6777      14.076      23.499    
  38.926      80.435      181.72      344.61      530.64      678.69      409.95      375.73      287.66      181.72    
  95.733      48.301      29.388      18.293      11.361      7.3703      5.1726      3.9366      3.0962      2.4148    
  1.9404      1.7280      1.6839      1.7280      1.9404      2.4148      3.0962      3.9366      5.1726      7.3703    
  11.361      18.293      29.388      48.301      95.733      181.72      287.66      375.73      180.93      164.92    
  125.04      80.435      48.301      31.755      21.047      13.561      8.8858      6.1312      4.5114      3.4901    
  2.7480      2.1707      1.7819      1.5948      1.5477      1.5948      1.7819      2.1707      2.7480      3.4901    
  4.5114      6.1312      8.8858      13.561      21.047      31.755      48.301      80.435      125.04      164.92    
  68.019      63.019      51.169      38.926      29.388      21.047      14.432      9.8261      6.8884      5.0610    
  3.8724      3.0286      2.3873      1.9107      1.6044      1.4536      1.4123      1.4536      1.6044      1.9107    
  2.3873      3.0286      3.8724      5.0610      6.8884      9.8261      14.432      21.047      29.388      38.926    
  51.169      63.019      32.916      31.685      28.293      23.499      18.293      13.561      9.8261      7.1749    
  5.3922      4.1722      3.2753      2.5762      2.0360      1.6534      1.4215      1.3103      1.2796      1.3103    
  1.4215      1.6534      2.0360      2.5762      3.2753      4.1722      5.3922      7.1749      9.8261      13.561    
  18.293      23.499      28.293      31.685      19.034      18.383      16.590      14.076      11.361      8.8858    
  6.8884      5.3922      4.2849      3.4272      2.7266      2.1535      1.7148      1.4181      1.2491      1.1728    
  1.1526      1.1728      1.2491      1.4181      1.7148      2.1535      2.7266      3.4272      4.2849      5.3922    
  6.8884      8.8858      11.361      14.076      16.590      18.383      11.007      10.703      9.8645      8.6777    
  7.3703      6.1312      5.0610      4.1722      3.4272      2.7858      2.2329      1.7786      1.4396      1.2192    
  1.0995      1.0482      1.0352      1.0482      1.0995      1.2192      1.4396      1.7786      2.2329      2.7858    
  3.4272      4.1722      5.0610      6.1312      7.3703      8.6777      9.8645      10.703      6.8657      6.7326    
  6.3591      5.8119      5.1726      4.5114      3.8724      3.2753      2.7266      2.2329      1.8072      1.4657    
  1.2185      1.0614     0.97640     0.93903     0.92914     0.93903     0.97640      1.0614      1.2185      1.4657    
  1.8072      2.2329      2.7266      3.2753      3.8724      4.5114      5.1726      5.8119      6.3591      6.7326    
  4.9571      4.8818      4.6667      4.3399      3.9366      3.4901      3.0286      2.5762      2.1535      1.7786    
  1.4657      1.2232      1.0510     0.94001     0.87578     0.84379     0.83424     0.84379     0.87578     0.94001    
  1.0510      1.2232      1.4657      1.7786      2.1535      2.5762      3.0286      3.4901      3.9366      4.3399    
  4.6667      4.8818      3.8843      3.8264      3.6609      3.4088      3.0962      2.7480      2.3873      2.0360    
  1.7148      1.4396      1.2185      1.0510     0.93013     0.84643     0.79140     0.75980     0.74943     0.75980    