   1   1   0   0
  0.4704588E+02  0.3610000E-09  0.3610000E-09  0.3610000E-09  0.5000000E-15
  1.000000000000000E-004
  CAR 
 unknown system                          
     23.23618214    -74.07858993  301     -1.44451858      1.00000000
    -74.079  0.0000E+00  0.0000E+00
    -73.754  0.0000E+00  0.0000E+00
    -73.430  0.0000E+00  0.0000E+00
    -73.105  0.0000E+00  0.0000E+00
    -72.781  0.0000E+00  0.0000E+00
    -72.457  0.0000E+00  0.0000E+00
    -72.132  0.0000E+00  0.0000E+00
    -71.808  0.0000E+00  0.0000E+00
    -71.484  0.0000E+00  0.0000E+00
    -71.159  0.0000E+00  0.0000E+00
    -70.835  0.5704E-16  0.1850E-16
    -70.510  0.2059E-08  0.6679E-09
    -70.186  0.3906E-03  0.1267E-03
    -69.862  0.5891E+00  0.1912E+00
    -69.537  0.1132E+02  0.3862E+01
    -69.213  0.6494E+01  0.5969E+01
    -68.888  0.9611E-01  0.6000E+01
    -68.564  0.1935E-04  0.6000E+01
    -68.240  0.3457E-10  0.6000E+01
    -67.915  0.0000E+00  0.6000E+01
    -67.591  0.0000E+00  0.6000E+01
    -67.267  0.0000E+00  0.6000E+01
    -66.942  0.0000E+00  0.6000E+01
    -66.618  0.0000E+00  0.6000E+01
    -66.293  0.0000E+00  0.6000E+01
    -65.969  0.0000E+00  0.6000E+01
    -65.645  0.0000E+00  0.6000E+01
    -65.320  0.0000E+00  0.6000E+01
    -64.996  0.0000E+00  0.6000E+01
    -64.671  0.0000E+00  0.6000E+01
    -64.347  0.0000E+00  0.6000E+01
    -64.023  0.0000E+00  0.6000E+01
    -63.698  0.0000E+00  0.6000E+01
    -63.374  0.0000E+00  0.6000E+01
    -63.050  0.0000E+00  0.6000E+01
    -62.725  0.0000E+00  0.6000E+01
    -62.401  0.0000E+00  0.6000E+01
    -62.076  0.0000E+00  0.6000E+01
    -61.752  0.0000E+00  0.6000E+01
    -61.428  0.0000E+00  0.6000E+01
    -61.103  0.0000E+00  0.6000E+01
    -60.779  0.0000E+00  0.6000E+01
    -60.455  0.0000E+00  0.6000E+01
    -60.130  0.0000E+00  0.6000E+01
    -59.806  0.0000E+00  0.6000E+01
    -59.481  0.0000E+00  0.6000E+01
    -59.157  0.0000E+00  0.6000E+01
    -58.833  0.0000E+00  0.6000E+01
    -58.508  0.0000E+00  0.6000E+01
    -58.184  0.0000E+00  0.6000E+01
    -57.859  0.0000E+00  0.6000E+01
    -57.535  0.0000E+00  0.6000E+01
    -57.211  0.0000E+00  0.6000E+01
    -56.886  0.0000E+00  0.6000E+01
    -56.562  0.0000E+00  0.6000E+01
    -56.238  0.0000E+00  0.6000E+01
    -55.913  0.0000E+00  0.6000E+01
    -55.589  0.0000E+00  0.6000E+01
    -55.264  0.0000E+00  0.6000E+01
    -54.940  0.0000E+00  0.6000E+01
    -54.616  0.0000E+00  0.6000E+01
    -54.291  0.0000E+00  0.6000E+01
    -53.967  0.0000E+00  0.6000E+01
    -53.642  0.0000E+00  0.6000E+01
    -53.318  0.0000E+00  0.6000E+01
    -52.994  0.0000E+00  0.6000E+01
    -52.669  0.0000E+00  0.6000E+01
    -52.345  0.0000E+00  0.6000E+01
    -52.021  0.0000E+00  0.6000E+01
    -51.696  0.0000E+00  0.6000E+01
    -51.372  0.0000E+00  0.6000E+01
    -51.047  0.0000E+00  0.6000E+01
    -50.723  0.0000E+00  0.6000E+01
    -50.399  0.0000E+00  0.6000E+01
    -50.074  0.0000E+00  0.6000E+01
    -49.750  0.0000E+00  0.6000E+01
    -49.426  0.0000E+00  0.6000E+01
    -49.101  0.0000E+00  0.6000E+01
    -48.777  0.0000E+00  0.6000E+01
    -48.452  0.0000E+00  0.6000E+01
    -48.128  0.0000E+00  0.6000E+01
    -47.804  0.0000E+00  0.6000E+01
    -47.479  0.0000E+00  0.6000E+01
    -47.155  0.0000E+00  0.6000E+01
    -46.830  0.0000E+00  0.6000E+01
    -46.506  0.0000E+00  0.6000E+01
    -46.182  0.0000E+00  0.6000E+01
    -45.857  0.0000E+00  0.6000E+01
    -45.533  0.0000E+00  0.6000E+01
    -45.209  0.0000E+00  0.6000E+01
    -44.884  0.0000E+00  0.6000E+01
    -44.560  0.0000E+00  0.6000E+01
    -44.235  0.0000E+00  0.6000E+01
    -43.911  0.0000E+00  0.6000E+01
    -43.587  0.0000E+00  0.6000E+01
    -43.262  0.0000E+00  0.6000E+01
    -42.938  0.0000E+00  0.6000E+01
    -42.613  0.0000E+00  0.6000E+01
    -42.289  0.0000E+00  0.6000E+01
    -41.965  0.0000E+00  0.6000E+01
    -41.640  0.0000E+00  0.6000E+01
    -41.316  0.0000E+00  0.6000E+01
    -40.992  0.0000E+00  0.6000E+01
    -40.667  0.0000E+00  0.6000E+01
    -40.343  0.0000E+00  0.6000E+01
    -40.018  0.0000E+00  0.6000E+01
    -39.694  0.0000E+00  0.6000E+01
    -39.370  0.0000E+00  0.6000E+01
    -39.045  0.0000E+00  0.6000E+01
    -38.721  0.0000E+00  0.6000E+01
    -38.397  0.0000E+00  0.6000E+01
    -38.072  0.0000E+00  0.6000E+01
    -37.748  0.0000E+00  0.6000E+01
    -37.423  0.0000E+00  0.6000E+01
    -37.099  0.0000E+00  0.6000E+01
    -36.775  0.0000E+00  0.6000E+01
    -36.450  0.0000E+00  0.6000E+01
    -36.126  0.0000E+00  0.6000E+01
    -35.801  0.0000E+00  0.6000E+01
    -35.477  0.0000E+00  0.6000E+01
    -35.153  0.0000E+00  0.6000E+01
    -34.828  0.0000E+00  0.6000E+01
    -34.504  0.0000E+00  0.6000E+01
    -34.180  0.0000E+00  0.6000E+01
    -33.855  0.0000E+00  0.6000E+01
    -33.531  0.0000E+00  0.6000E+01
    -33.206  0.0000E+00  0.6000E+01
    -32.882  0.0000E+00  0.6000E+01
    -32.558  0.0000E+00  0.6000E+01
    -32.233  0.0000E+00  0.6000E+01
    -31.909  0.0000E+00  0.6000E+01
    -31.584  0.0000E+00  0.6000E+01
    -31.260  0.0000E+00  0.6000E+01
    -30.936  0.0000E+00  0.6000E+01
    -30.611  0.0000E+00  0.6000E+01
    -30.287  0.0000E+00  0.6000E+01
    -29.963  0.0000E+00  0.6000E+01
    -29.638  0.0000E+00  0.6000E+01
    -29.314  0.0000E+00  0.6000E+01
    -28.989  0.0000E+00  0.6000E+01
    -28.665  0.0000E+00  0.6000E+01
    -28.341  0.0000E+00  0.6000E+01
    -28.016  0.0000E+00  0.6000E+01
    -27.692  0.0000E+00  0.6000E+01
    -27.367  0.0000E+00  0.6000E+01
    -27.043  0.0000E+00  0.6000E+01
    -26.719  0.0000E+00  0.6000E+01
    -26.394  0.0000E+00  0.6000E+01
    -26.070  0.0000E+00  0.6000E+01
    -25.746  0.0000E+00  0.6000E+01
    -25.421  0.0000E+00  0.6000E+01
    -25.097  0.0000E+00  0.6000E+01
    -24.772  0.0000E+00  0.6000E+01
    -24.448  0.0000E+00  0.6000E+01
    -24.124  0.0000E+00  0.6000E+01
    -23.799  0.0000E+00  0.6000E+01
    -23.475  0.0000E+00  0.6000E+01
    -23.151  0.0000E+00  0.6000E+01
    -22.826  0.0000E+00  0.6000E+01
    -22.502  0.0000E+00  0.6000E+01
    -22.177  0.0000E+00  0.6000E+01
    -21.853  0.0000E+00  0.6000E+01
    -21.529  0.0000E+00  0.6000E+01
    -21.204  0.0000E+00  0.6000E+01
    -20.880  0.0000E+00  0.6000E+01
    -20.555  0.0000E+00  0.6000E+01
    -20.231  0.0000E+00  0.6000E+01
    -19.907  0.0000E+00  0.6000E+01
    -19.582  0.0000E+00  0.6000E+01
    -19.258  0.0000E+00  0.6000E+01
    -18.934  0.0000E+00  0.6000E+01
    -18.609  0.0000E+00  0.6000E+01
    -18.285  0.0000E+00  0.6000E+01
    -17.960  0.0000E+00  0.6000E+01
    -17.636  0.0000E+00  0.6000E+01
    -17.312  0.0000E+00  0.6000E+01
    -16.987  0.0000E+00  0.6000E+01
    -16.663  0.0000E+00  0.6000E+01
    -16.338  0.0000E+00  0.6000E+01
    -16.014  0.0000E+00  0.6000E+01
    -15.690  0.0000E+00  0.6000E+01
    -15.365  0.0000E+00  0.6000E+01
    -15.041  0.0000E+00  0.6000E+01
    -14.717  0.0000E+00  0.6000E+01
    -14.392  0.0000E+00  0.6000E+01
    -14.068  0.0000E+00  0.6000E+01
    -13.743  0.0000E+00  0.6000E+01
    -13.419  0.0000E+00  0.6000E+01
    -13.095  0.0000E+00  0.6000E+01
    -12.770  0.0000E+00  0.6000E+01
    -12.446  0.0000E+00  0.6000E+01
    -12.122  0.0000E+00  0.6000E+01
    -11.797  0.0000E+00  0.6000E+01
    -11.473  0.0000E+00  0.6000E+01
    -11.148  0.0000E+00  0.6000E+01
    -10.824  0.0000E+00  0.6000E+01
    -10.500  0.0000E+00  0.6000E+01
    -10.175  0.0000E+00  0.6000E+01
     -9.851  0.0000E+00  0.6000E+01
     -9.526  0.0000E+00  0.6000E+01
     -9.202  0.0000E+00  0.6000E+01
     -8.878  0.0000E+00  0.6000E+01
     -8.553  0.0000E+00  0.6000E+01
     -8.229  0.0000E+00  0.6000E+01
     -7.905  0.0000E+00  0.6000E+01
     -7.580  0.0000E+00  0.6000E+01
     -7.256  0.0000E+00  0.6000E+01
     -6.931  0.0000E+00  0.6000E+01
     -6.607  0.0000E+00  0.6000E+01
     -6.283  0.0000E+00  0.6000E+01
     -5.958  0.0000E+00  0.6000E+01
     -5.634  0.0000E+00  0.6000E+01
     -5.309  0.3016E-11  0.6000E+01
     -4.985  0.2087E-05  0.6000E+01
     -4.661  0.9318E-02  0.6003E+01
     -4.336  0.3930E+00  0.6131E+01
     -4.012  0.5185E+00  0.6299E+01
     -3.688  0.2844E+00  0.6391E+01
     -3.363  0.3693E+00  0.6511E+01
     -3.039  0.9293E+00  0.6812E+01
     -2.714  0.9109E+01  0.9767E+01
     -2.390  0.1670E+02  0.1518E+02
     -2.066  0.4278E+01  0.1657E+02
     -1.741  0.5546E+00  0.1675E+02
     -1.417  0.8052E+00  0.1701E+02
     -1.093  0.2298E+00  0.1709E+02
     -0.768  0.3006E+00  0.1719E+02
     -0.444  0.2809E+00  0.1728E+02
     -0.119  0.6870E+00  0.1750E+02
      0.205  0.1111E+01  0.1786E+02
      0.529  0.6245E+00  0.1806E+02
      0.854  0.1411E+00  0.1811E+02
      1.178  0.3679E+00  0.1823E+02
      1.503  0.5012E+00  0.1839E+02
      1.827  0.1310E+01  0.1881E+02
      2.151  0.1117E+01  0.1918E+02
      2.476  0.6562E+00  0.1939E+02
      2.800  0.5271E+00  0.1956E+02
      3.124  0.3754E+00  0.1968E+02
      3.449  0.1538E+01  0.2018E+02
      3.773  0.1451E+01  0.2065E+02
      4.098  0.3295E+00  0.2076E+02
      4.422  0.6038E+00  0.2096E+02
      4.746  0.1292E+01  0.2137E+02
      5.071  0.1123E+01  0.2174E+02
      5.395  0.2751E+00  0.2183E+02
      5.720  0.1094E+00  0.2186E+02
      6.044  0.4271E+00  0.2200E+02
      6.368  0.4316E+00  0.2214E+02
      6.693  0.9910E+00  0.2246E+02
      7.017  0.3240E+01  0.2351E+02
      7.341  0.1754E+01  0.2408E+02
      7.666  0.9809E+00  0.2440E+02
      7.990  0.1016E+01  0.2473E+02
      8.315  0.9228E+00  0.2503E+02
      8.639  0.1827E+01  0.2562E+02
      8.963  0.1643E+01  0.2616E+02
      9.288  0.1472E+01  0.2663E+02
      9.612  0.1757E+01  0.2720E+02
      9.936  0.5774E+00  0.2739E+02
     10.261  0.8167E+00  0.2766E+02
     10.585  0.3123E+00  0.2776E+02
     10.910  0.4427E+00  0.2790E+02
     11.234  0.8679E+00  0.2818E+02
     11.558  0.1115E+01  0.2854E+02
     11.883  0.1329E+01  0.2897E+02
     12.207  0.1325E+01  0.2940E+02
     12.532  0.8394E+00  0.2968E+02
     12.856  0.1238E+01  0.3008E+02
     13.180  0.2760E+00  0.3017E+02
     13.505  0.5403E+00  0.3034E+02
     13.829  0.1870E+01  0.3095E+02
     14.153  0.7422E+00  0.3119E+02
     14.478  0.9609E+00  0.3150E+02
     14.802  0.4087E+00  0.3163E+02
     15.127  0.9713E-01  0.3167E+02
     15.451  0.1184E-02  0.3167E+02
     15.775  0.6601E-03  0.3167E+02
     16.100  0.7820E-01  0.3169E+02
     16.424  0.1686E+00  0.3175E+02
     16.749  0.9445E-02  0.3175E+02
     17.073  0.5711E-05  0.3175E+02
     17.397  0.2324E-10  0.3175E+02
     17.722  0.4663E-14  0.3175E+02
     18.046  0.2277E-07  0.3175E+02
     18.370  0.6786E-03  0.3175E+02
     18.695  0.1551E+00  0.3180E+02
     19.019  0.5593E+00  0.3198E+02
     19.344  0.5557E-01  0.3200E+02
     19.668  0.6723E-04  0.3200E+02
     19.992  0.5683E-09  0.3200E+02
     20.317  0.0000E+00  0.3200E+02
     20.641  0.0000E+00  0.3200E+02
     20.966  0.0000E+00  0.3200E+02
     21.290  0.0000E+00  0.3200E+02
     21.614  0.0000E+00  0.3200E+02
     21.939  0.0000E+00  0.3200E+02
     22.263  0.0000E+00  0.3200E+02
     22.587  0.0000E+00  0.3200E+02
     22.912  0.0000E+00  0.3200E+02
     23.236  0.0000E+00  0.3200E+02
