<?xml version="1.0" encoding="ISO-8859-1"?>
<modeling>
 <generator>
  <i name="program" type="string">vasp </i>
  <i name="version" type="string">5.2.12  </i>
  <i name="subversion" type="string">11Nov11 complex                                                      parallel </i>
  <i name="platform" type="string">LinuxIFC </i>
  <i name="date" type="string">2020 04 24 </i>
  <i name="time" type="string">18:39:14 </i>
 </generator>
 <incar>
  <i type="int" name="ISTART">     0</i>
  <i type="string" name="PREC">normal</i>
  <i type="int" name="ICHARG">     2</i>
  <i type="int" name="NELM">    40</i>
  <i type="int" name="NELMIN">     2</i>
  <i name="EDIFF">      0.00010000</i>
  <i name="ENCUT">    300.00000000</i>
  <i type="logical" name="LREAL"> F  </i>
  <i type="int" name="ISMEAR">     0</i>
  <i type="int" name="NELM">    40</i>
 </incar>
 <kpoints>
  <generation param="listgenerated">
   <i name="divisions" type="int">       4 </i>
   <v>       0.00000000       0.00000000       0.00000000 </v>
   <v>       0.00000000       0.50000000       0.00000000 </v>
   <v>       0.50000000       0.50000000       0.00000000 </v>
   <v>       0.00000000       0.00000000       0.00000000 </v>
   <v>       0.50000000       0.50000000       0.50000000 </v>
   <v>       0.50000000       0.50000000       0.00000000 </v>
   <v>       0.50000000       0.50000000       0.50000000 </v>
  </generation>
  <varray name="kpointlist" >
   <v>       0.00000000       0.00000000       0.00000000 </v>
   <v>       0.00000000       0.16666667       0.00000000 </v>
   <v>       0.00000000       0.33333333       0.00000000 </v>
   <v>       0.00000000       0.50000000       0.00000000 </v>
   <v>       0.00000000       0.50000000       0.00000000 </v>
   <v>       0.16666667       0.50000000       0.00000000 </v>
   <v>       0.33333333       0.50000000       0.00000000 </v>
   <v>       0.50000000       0.50000000       0.00000000 </v>
   <v>       0.50000000       0.50000000       0.00000000 </v>
   <v>       0.33333333       0.33333333       0.00000000 </v>
   <v>       0.16666667       0.16666667       0.00000000 </v>
   <v>       0.00000000       0.00000000       0.00000000 </v>
   <v>       0.00000000       0.00000000       0.00000000 </v>
   <v>       0.16666667       0.16666667       0.16666667 </v>
   <v>       0.33333333       0.33333333       0.33333333 </v>
   <v>       0.50000000       0.50000000       0.50000000 </v>
   <v>       0.50000000       0.50000000       0.50000000 </v>
   <v>       0.33333333       0.50000000       0.33333333 </v>
   <v>       0.16666667       0.50000000       0.16666667 </v>
   <v>       0.00000000       0.50000000       0.00000000 </v>
   <v>       0.50000000       0.50000000       0.00000000 </v>
   <v>       0.50000000       0.50000000       0.16666667 </v>
   <v>       0.50000000       0.50000000       0.33333333 </v>
   <v>       0.50000000       0.50000000       0.50000000 </v>
  </varray>
  <varray name="weights" >
   <v>       0.04166667 </v>
   <v>       0.04166667 </v>
   <v>       0.04166667 </v>
   <v>       0.04166667 </v>
   <v>       0.04166667 </v>
   <v>       0.04166667 </v>
   <v>       0.04166667 </v>
   <v>       0.04166667 </v>
   <v>       0.04166667 </v>
   <v>       0.04166667 </v>
   <v>       0.04166667 </v>
   <v>       0.04166667 </v>
   <v>       0.04166667 </v>
   <v>       0.04166667 </v>
   <v>       0.04166667 </v>
   <v>       0.04166667 </v>
   <v>       0.04166667 </v>
   <v>       0.04166667 </v>
   <v>       0.04166667 </v>
   <v>       0.04166667 </v>
   <v>       0.04166667 </v>
   <v>       0.04166667 </v>
   <v>       0.04166667 </v>
   <v>       0.04166667 </v>
  </varray>
 </kpoints>
 <parameters>
  <separator name="general" >
   <i type="string" name="SYSTEM">unknown system</i>
   <i type="logical" name="LCOMPAT"> F  </i>
  </separator>
  <separator name="electronic" >
   <i type="string" name="PREC">normal</i>
   <i name="ENMAX">    300.00000000</i>
   <i name="ENAUG">    758.23300000</i>
   <i name="EDIFF">      0.00010000</i>
   <i type="int" name="IALGO">    38</i>
   <i type="int" name="IWAVPR">    10</i>
   <i type="int" name="NBANDS">    16</i>
   <i name="NELECT">     17.00000000</i>
   <i type="int" name="TURBO">     0</i>
   <i type="int" name="IRESTART">     0</i>
   <i type="int" name="NREBOOT">     0</i>
   <i type="int" name="NMIN">     0</i>
   <i name="EREF">      0.00000000</i>
   <separator name="electronic smearing" >
    <i type="int" name="ISMEAR">     0</i>
    <i name="SIGMA">      0.20000000</i>
    <i name="KSPACING">      0.50000000</i>
    <i type="logical" name="KGAMMA"> T  </i>
   </separator>
   <separator name="electronic projectors" >
    <i type="logical" name="LREAL"> F  </i>
    <v name="ROPT">      0.00000000</v>
    <i type="int" name="LMAXPAW">  -100</i>
    <i type="int" name="LMAXMIX">     2</i>
    <i type="logical" name="NLSPLINE"> F  </i>
   </separator>
   <separator name="electronic startup" >
    <i type="int" name="ISTART">     0</i>
    <i type="int" name="ICHARG">     2</i>
    <i type="int" name="INIWAV">     1</i>
   </separator>
   <separator name="electronic spin" >
    <i type="int" name="ISPIN">     1</i>
    <i type="logical" name="LNONCOLLINEAR"> F  </i>
    <v name="MAGMOM">      1.00000000</v>
    <i name="NUPDOWN">     -1.00000000</i>
    <i type="logical" name="LSORBIT"> F  </i>
    <v name="SAXIS">      0.00000000      0.00000000      1.00000000</v>
    <i type="logical" name="LSPIRAL"> F  </i>
    <v name="QSPIRAL">      0.00000000      0.00000000      0.00000000</v>
    <i type="logical" name="LZEROZ"> F  </i>
   </separator>
   <separator name="electronic exchange-correlation" >
    <i type="logical" name="LASPH"> F  </i>
    <i type="logical" name="LMETAGGA"> F  </i>
   </separator>
   <separator name="electronic convergence" >
    <i type="int" name="NELM">    40</i>
    <i type="int" name="NELMDL">    -5</i>
    <i type="int" name="NELMIN">     2</i>
    <i name="ENINI">    300.00000000</i>
    <separator name="electronic convergence detail" >
     <i type="logical" name="LDIAG"> T  </i>
     <i type="logical" name="LSUBROT"> T  </i>
     <i name="WEIMIN">      0.00000000</i>
     <i name="EBREAK">      0.00000156</i>
     <i name="DEPER">      0.30000000</i>
     <i type="int" name="NRMM">     4</i>
     <i name="TIME">      0.40000000</i>
    </separator>
   </separator>
   <separator name="electronic mixer" >
    <i name="AMIX">      0.40000000</i>
    <i name="BMIX">      1.00000000</i>
    <i name="AMIN">      0.10000000</i>
    <i name="AMIX_MAG">      1.60000000</i>
    <i name="BMIX_MAG">      1.00000000</i>
    <separator name="electronic mixer details" >
     <i type="int" name="IMIX">     4</i>
     <i type="int" name="MAXMIX">   -45</i>
     <i name="WC">    100.00000000</i>
     <i type="int" name="INIMIX">     1</i>
     <i type="int" name="MIXPRE">     1</i>
     <i type="int" name="MREMOVE">     5</i>
    </separator>
   </separator>
   <separator name="electronic dipolcorrection" >
    <i type="logical" name="LDIPOL"> F  </i>
    <i type="logical" name="LMONO"> F  </i>
    <i type="int" name="IDIPOL">     0</i>
    <i name="EPSILON">      1.00000000</i>
    <v name="DIPOL">   -100.00000000   -100.00000000   -100.00000000</v>
    <i name="EFIELD">      0.00000000</i>
   </separator>
  </separator>
  <separator name="grids" >
   <i type="int" name="NGX">    16</i>
   <i type="int" name="NGY">    16</i>
   <i type="int" name="NGZ">    16</i>
   <i type="int" name="NGXF">    32</i>
   <i type="int" name="NGYF">    32</i>
   <i type="int" name="NGZF">    32</i>
   <i type="logical" name="ADDGRID"> F  </i>
  </separator>
  <separator name="ionic" >
   <i type="int" name="NSW">     0</i>
   <i type="int" name="IBRION">    -1</i>
   <i type="int" name="ISIF">     2</i>
   <i name="PSTRESS">      0.00000000</i>
   <i name="EDIFFG">      0.00100000</i>
   <i type="int" name="NFREE">     0</i>
   <i name="POTIM">      0.50000000</i>
   <i name="SMASS">     -3.00000000</i>
   <i name="SCALEE">      1.00000000</i>
  </separator>
  <separator name="ionic md" >
   <i name="TEBEG">      0.00010000</i>
   <i name="TEEND">      0.00010000</i>
   <i type="int" name="NBLOCK">     1</i>
   <i type="int" name="KBLOCK">     1</i>
   <i type="int" name="NPACO">   256</i>
   <i name="APACO">     16.00000000</i>
  </separator>
  <separator name="symmetry" >
   <i type="int" name="ISYM">     2</i>
   <i name="SYMPREC">      0.00001000</i>
  </separator>
  <separator name="dos" >
   <i type="logical" name="LORBIT"> F  </i>
   <v name="RWIGS">     -1.00000000</v>
   <i type="int" name="NEDOS">   301</i>
   <i name="EMIN">     10.00000000</i>
   <i name="EMAX">    -10.00000000</i>
   <i name="EFERMI">      0.00000000</i>
  </separator>
  <separator name="writing" >
   <i type="int" name="NWRITE">     2</i>
   <i type="logical" name="LWAVE"> T  </i>
   <i type="logical" name="LCHARG"> T  </i>
   <i type="logical" name="LPARD"> F  </i>
   <i type="logical" name="LVTOT"> F  </i>
   <i type="logical" name="LVHAR"> F  </i>
   <i type="logical" name="LELF"> F  </i>
   <i type="logical" name="LOPTICS"> F  </i>
   <v name="STM">      0.00000000      0.00000000      0.00000000      0.00000000      0.00000000      0.00000000      0.00000000</v>
  </separator>
  <separator name="performance" >
   <i type="int" name="NPAR">     8</i>
   <i type="int" name="NSIM">     4</i>
   <i type="int" name="NBLK">    -1</i>
   <i type="logical" name="LPLANE"> T  </i>
   <i type="logical" name="LSCALAPACK"> F  </i>
   <i type="logical" name="LSCAAWARE"> F  </i>
   <i type="logical" name="LSCALU"> F  </i>
   <i type="logical" name="LASYNC"> F  </i>
   <i type="logical" name="LORBITALREAL"> F  </i>
  </separator>
  <separator name="miscellaneous" >
   <i type="int" name="IDIOT">     3</i>
   <i type="logical" name="LMUSIC"> F  </i>
   <v name="POMASS">     63.54600000</v>
   <v name="DARWINR">      0.00000000</v>
   <v name="DARWINV">      1.00000000</v>
   <i type="logical" name="LCORR"> T  </i>
  </separator>
  <i type="logical" name="GGA_COMPAT"> T  </i>
  <i type="logical" name="LBERRY"> F  </i>
  <i type="int" name="ICORELEVEL">     0</i>
  <i type="logical" name="LDAU"> F  </i>
  <i type="int" name="I_CONSTRAINED_M">     0</i>
  <separator name="electronic exchange-correlation" >
   <i type="string" name="GGA">--</i>
   <i type="int" name="VOSKOWN">     0</i>
   <i type="logical" name="LHFCALC"> F  </i>
   <i type="string" name="PRECFOCK"></i>
   <i type="logical" name="LHFONE"> F  </i>
   <i type="logical" name="LRHFCALC"> F  </i>
   <i type="logical" name="LTHOMAS"> F  </i>
   <i type="logical" name="LMODELHF"> F  </i>
   <i name="ENCUT4O">     -1.00000000</i>
   <i type="int" name="EXXOEP">     0</i>
   <i type="int" name="FOURORBIT">     0</i>
   <i name="AEXX">      0.00000000</i>
   <i name="HFALPHA">      0.00000000</i>
   <i name="ALDAX">      1.00000000</i>
   <i name="AGGAX">      1.00000000</i>
   <i name="ALDAC">      1.00000000</i>
   <i name="AGGAC">      1.00000000</i>
   <i type="int" name="NKREDX">     1</i>
   <i type="int" name="NKREDY">     1</i>
   <i type="int" name="NKREDZ">     1</i>
   <i type="logical" name="SHIFTRED"> F  </i>
   <i type="logical" name="ODDONLY"> F  </i>
   <i type="logical" name="EVENONLY"> F  </i>
   <i type="int" name="LMAXFOCK">     0</i>
   <i type="int" name="NMAXFOCKAE">     0</i>
   <i type="logical" name="LFOCKAEDFT"> F  </i>
   <i name="HFSCREEN">      0.00000000</i>
   <i name="HFSCREENC">      0.00000000</i>
  </separator>
  <separator name="vdW DFT" >
   <i type="logical" name="LUSE_VDW"> F  </i>
   <i name="Zab_VDW">     -0.84910000</i>
   <i name="PARAM1">      0.12340000</i>
   <i name="PARAM2">      1.00000000</i>
   <i name="PARAM3">      0.00000000</i>
  </separator>
  <separator name="model GW" >
   <i type="int" name="MODEL_GW">     0</i>
   <i name="MODEL_EPS0">     28.22752860</i>
   <i name="MODEL_ALPHA">      1.00000000</i>
  </separator>
  <separator name="linear response parameters" >
   <i type="logical" name="LEPSILON"> F  </i>
   <i type="logical" name="LRPA"> F  </i>
   <i type="logical" name="LNABLA"> F  </i>
   <i type="logical" name="LVEL"> F  </i>
   <i type="int" name="KINTER">     0</i>
   <i name="CSHIFT">      0.10000000</i>
   <i name="OMEGAMAX">     -1.00000000</i>
  </separator>
  <separator name="orbital magnetization" >
   <i type="logical" name="NUCIND"> F  </i>
   <v name="MAGPOS">      0.00000000      0.00000000      0.00000000</v>
   <i type="logical" name="LNICSALL"> T  </i>
   <i type="logical" name="ORBITALMAG"> F  </i>
   <i type="logical" name="LMAGBLOCH"> F  </i>
   <i type="logical" name="LCHIMAG"> F  </i>
   <i type="logical" name="LGAUGE"> T  </i>
   <i type="int" name="MAGATOM">     0</i>
   <v name="MAGDIPOL">      0.00000000      0.00000000      0.00000000</v>
   <v name="AVECCONST">      0.00000000      0.00000000      0.00000000</v>
  </separator>
  <separator name="response functions" >
   <i type="logical" name="LADDER"> F  </i>
   <i type="logical" name="LHARTREE"> T  </i>
   <i type="int" name="IBSE">     0</i>
   <i type="logical" name="LTCTE"> F  </i>
   <i type="logical" name="LTETE"> F  </i>
   <i type="logical" name="LFXCEPS"> F  </i>
   <i type="logical" name="L2ORDER"> F  </i>
   <i type="logical" name="LUSEW"> F  </i>
   <i name="ENCUTGW">     -2.00000000</i>
   <i name="ENCUTGWSOFT">     -2.00000000</i>
   <i name="ENCUTLF">     -1.00000000</i>
   <i type="int" name="LMAXMP2">    -1</i>
   <i name="SCISSOR">      0.00000000</i>
   <i type="int" name="NOMEGA">     0</i>
   <i type="int" name="NOMEGAR">     0</i>
   <i type="int" name="NBANDSGW">    -1</i>
   <i type="int" name="NBANDSO">    -1</i>
   <i type="int" name="NBANDSV">    -1</i>
   <i name="OPTEMAX">      0.00000000</i>
   <i type="int" name="NELM">    40</i>
   <i type="int" name="DIM">     3</i>
   <i type="int" name="ANTIRES">     0</i>
   <i name="OMEGAMAX">    -30.00000000</i>
   <i name="OMEGATL">   -200.00000000</i>
   <i type="int" name="OMEGAGRID">     0</i>
   <i name="CSHIFT">     -0.10000000</i>
   <i type="logical" name="SELFENERGY"> F  </i>
   <i type="logical" name="LSPECTRAL"> F  </i>
   <i type="logical" name="ODDONLYGW"> F  </i>
   <i type="logical" name="EVENONLYGW"> F  </i>
   <i type="int" name="NKREDLFX">     1</i>
   <i type="int" name="NKREDLFY">     1</i>
   <i type="int" name="NKREDLFZ">     1</i>
   <i type="int" name="MAXMEM">  1800</i>
   <i type="int" name="TELESCOPE">     0</i>
  </separator>
 </parameters>
 <atominfo>
  <atoms>       1 </atoms>
  <types>       1 </types>
  <array name="atoms" >
   <dimension dim="1">ion</dimension>
   <field type="string">element</field>
   <field type="int">atomtype</field>
   <set>
    <rc><c>Cu</c><c>   1</c></rc>
   </set>
  </array>
  <array name="atomtypes" >
   <dimension dim="1">type</dimension>
   <field type="int">atomspertype</field>
   <field type="string">element</field>
   <field>mass</field>
   <field>valence</field>
   <field type="string">pseudopotential</field>
   <set>
    <rc><c>   1</c><c>Cu</c><c>     63.54600000</c><c>     17.00000000</c><c> PAW_PBE Cu_pv 06Sep2000                </c></rc>
   </set>
  </array>
 </atominfo>
 <structure name="initialpos" >
  <crystal>
   <varray name="basis" >
    <v>       3.61000000       0.00000000       0.00000000 </v>
    <v>       0.00000000       3.61000000       0.00000000 </v>
    <v>       0.00000000       0.00000000       3.61000000 </v>
   </varray>
   <i name="volume">     47.04588100 </i>
   <varray name="rec_basis" >
    <v>       0.27700831       0.00000000       0.00000000 </v>
    <v>       0.00000000       0.27700831       0.00000000 </v>
    <v>       0.00000000       0.00000000       0.27700831 </v>
   </varray>
  </crystal>
  <varray name="positions" >
   <v>       0.00000000       0.00000000       0.00000000 </v>
  </varray>
 </structure>
 <calculation>
  <scstep>
   <time name="dav">    0.19    0.19</time>
   <time name="total">    0.21    0.21</time>
   <energy>
    <i name="alphaZ">     38.45531429 </i>
    <i name="ewald">  -1635.39095888 </i>
    <i name="hartreedc">  -2045.92999697 </i>
    <i name="XCdc">    106.34137266 </i>
    <i name="pawpsdc">   3230.69773108 </i>
    <i name="pawaedc">  -3379.67703955 </i>
    <i name="eentropy">     -0.03218478 </i>
    <i name="bandstr">   -361.59593041 </i>
    <i name="atom">   4118.06386640 </i>
    <i name="e_fr_energy">     70.93217386 </i>
    <i name="e_wo_entrp">     70.96435864 </i>
    <i name="e_0_energy">     70.94826625 </i>
   </energy>
  </scstep>
  <scstep>
   <time name="dav">    0.17    0.17</time>
   <time name="total">    0.18    0.18</time>
   <energy>
    <i name="e_fr_energy">     -0.31224492 </i>
    <i name="e_wo_entrp">     -0.29861938 </i>
    <i name="e_0_energy">     -0.30543215 </i>
   </energy>
  </scstep>
  <scstep>
   <time name="dav">    0.18    0.18</time>
   <time name="total">    0.19    0.19</time>
   <energy>
    <i name="e_fr_energy">     -1.47419243 </i>
    <i name="e_wo_entrp">     -1.46011534 </i>
    <i name="e_0_energy">     -1.46715388 </i>
   </energy>
  </scstep>
  <scstep>
   <time name="dav">    0.18    0.18</time>
   <time name="total">    0.19    0.19</time>
   <energy>
    <i name="e_fr_energy">     -1.48631580 </i>
    <i name="e_wo_entrp">     -1.47223848 </i>
    <i name="e_0_energy">     -1.47927714 </i>
   </energy>
  </scstep>
  <scstep>
   <time name="dav">    0.19    0.19</time>
   <time name="total">    0.20    0.20</time>
   <energy>
    <i name="e_fr_energy">     -1.48662781 </i>
    <i name="e_wo_entrp">     -1.47255048 </i>
    <i name="e_0_energy">     -1.47958914 </i>
   </energy>
  </scstep>
  <scstep>
   <time name="dav">    0.16    0.16</time>
   <time name="total">    0.17    0.18</time>
   <energy>
    <i name="e_fr_energy">     -1.46042063 </i>
    <i name="e_wo_entrp">     -1.45207444 </i>
    <i name="e_0_energy">     -1.45624754 </i>
   </energy>
  </scstep>
  <scstep>
   <time name="dav">    0.16    0.16</time>
   <time name="total">    0.18    0.18</time>
   <energy>
    <i name="e_fr_energy">     -1.41480678 </i>
    <i name="e_wo_entrp">     -1.40492751 </i>
    <i name="e_0_energy">     -1.40986715 </i>
   </energy>
  </scstep>
  <scstep>
   <time name="dav">    0.15    0.15</time>
   <time name="total">    0.17    0.17</time>
   <energy>
    <i name="e_fr_energy">     -1.42112747 </i>
    <i name="e_wo_entrp">     -1.41065224 </i>
    <i name="e_0_energy">     -1.41588986 </i>
   </energy>
  </scstep>
  <scstep>
   <time name="dav">    0.17    0.17</time>
   <time name="total">    0.19    0.19</time>
   <energy>
    <i name="e_fr_energy">     -1.42033626 </i>
    <i name="e_wo_entrp">     -1.41011951 </i>
    <i name="e_0_energy">     -1.41522788 </i>
   </energy>
  </scstep>
  <scstep>
   <time name="dav">    0.16    0.16</time>
   <time name="total">    0.17    0.17</time>
   <energy>
    <i name="alphaZ">     38.45531429 </i>
    <i name="ewald">  -1635.39095888 </i>
    <i name="hartreedc">  -2036.11949567 </i>
    <i name="XCdc">    106.06093822 </i>
    <i name="pawpsdc">   3237.05024920 </i>
    <i name="pawaedc">  -3382.82079771 </i>
    <i name="eentropy">     -0.01008672 </i>
    <i name="bandstr">   -446.70929745 </i>
    <i name="atom">   4118.06386640 </i>
    <i name="e_fr_energy">     -1.42026832 </i>
    <i name="e_wo_entrp">     -1.41018160 </i>
    <i name="e_0_energy">     -1.41522496 </i>
   </energy>
  </scstep>
  <parameters_embedded>
   <separator name="dft+d2" >
    <i type="logical" name="LVDW"> F  </i>
   </separator>
  </parameters_embedded>
  <structure>
   <crystal>
    <varray name="basis" >
     <v>       3.61000000       0.00000000       0.00000000 </v>
     <v>       0.00000000       3.61000000       0.00000000 </v>
     <v>       0.00000000       0.00000000       3.61000000 </v>
    </varray>
    <i name="volume">     47.04588100 </i>
    <varray name="rec_basis" >
     <v>       0.27700831       0.00000000       0.00000000 </v>
     <v>       0.00000000       0.27700831       0.00000000 </v>
     <v>       0.00000000       0.00000000       0.27700831 </v>
    </varray>
   </crystal>
   <varray name="positions" >
    <v>       0.00000000       0.00000000       0.00000000 </v>
   </varray>
  </structure>
  <varray name="forces" >
   <v>       0.00000000       0.00000000       0.00000000 </v>
  </varray>
  <varray name="stress" >
   <v>    -434.55360487       0.00000000       0.00000000 </v>
   <v>       0.00000000    -434.55360487       0.00000000 </v>
   <v>       0.00000000       0.00000000    -434.55360487 </v>
  </varray>
  <energy>
   <i name="e_fr_energy">     -1.42026832 </i>
   <i name="e_wo_entrp">     -1.41522496 </i>
   <i name="e_0_energy">     -0.01008672 </i>
  </energy>
  <time name="totalsc">    2.09    2.14</time>
  <eigenvalues>
   <array>
    <dimension dim="1">band</dimension>
    <dimension dim="2">kpoint</dimension>
    <dimension dim="3">spin</dimension>
    <field>eigene</field>
    <field>occ</field>
    <set>
     <set comment="spin 1">
      <set comment="kpoint 1">
       <r>  -69.5060    1.0000 </r>
       <r>  -69.5060    1.0000 </r>
       <r>  -69.5060    1.0000 </r>
       <r>   -4.3419    1.0000 </r>
       <r>   -2.7736    1.0000 </r>
       <r>   -2.7736    1.0000 </r>
       <r>   -2.4451    1.0000 </r>
       <r>   -2.4451    1.0000 </r>
       <r>   -2.4451    1.0000 </r>
       <r>    6.7907    0.0000 </r>
       <r>    6.7907    0.0000 </r>
       <r>    6.7907    0.0000 </r>
       <r>    8.8027    0.0000 </r>
       <r>    9.2809    0.0000 </r>
       <r>    9.2809    0.0000 </r>
       <r>   18.8128    0.0000 </r>
      </set>
      <set comment="kpoint 2">
       <r>  -69.5881    1.0000 </r>
       <r>  -69.5656    1.0000 </r>
       <r>  -69.5656    1.0000 </r>
       <r>   -4.0425    1.0000 </r>
       <r>   -2.7846    1.0000 </r>
       <r>   -2.7572    1.0000 </r>
       <r>   -2.4917    1.0000 </r>
       <r>   -2.4917    1.0000 </r>
       <r>   -2.4678    1.0000 </r>
       <r>    4.2231    0.0000 </r>
       <r>    7.0979    0.0000 </r>
       <r>    7.0979    0.0000 </r>
       <r>    9.2091    0.0000 </r>
       <r>    9.5438    0.0000 </r>
       <r>   12.2138    0.0000 </r>
       <r>   16.1711    0.0000 </r>
      </set>
      <set comment="kpoint 3">
       <r>  -69.6042    1.0000 </r>
       <r>  -69.5766    1.0000 </r>
       <r>  -69.5766    1.0000 </r>
       <r>   -3.3231    1.0000 </r>
       <r>   -2.7694    1.0000 </r>
       <r>   -2.5462    1.0000 </r>
       <r>   -2.5462    1.0000 </r>
       <r>   -2.4822    1.0000 </r>
       <r>   -2.4678    1.0000 </r>
       <r>    1.4076    0.0000 </r>
       <r>    7.8922    0.0000 </r>
       <r>    7.8922    0.0000 </r>
       <r>   10.0255    0.0000 </r>
       <r>   10.3639    0.0000 </r>
       <r>   13.4624    0.0000 </r>
       <r>   13.5866    0.0000 </r>
      </set>
      <set comment="kpoint 4">
       <r>  -69.6540    1.0000 </r>
       <r>  -69.5736    1.0000 </r>
       <r>  -69.5736    1.0000 </r>
       <r>   -3.0398    1.0000 </r>
       <r>   -2.7569    1.0000 </r>
       <r>   -2.5794    1.0000 </r>
       <r>   -2.5794    1.0000 </r>
       <r>   -2.4612    1.0000 </r>
       <r>   -1.7104    0.9700 </r>
       <r>   -0.2714    0.0000 </r>
       <r>    8.4862    0.0000 </r>
       <r>    8.4862    0.0000 </r>
       <r>   11.1665    0.0000 </r>
       <r>   11.5006    0.0000 </r>
       <r>   11.7810    0.0000 </r>
       <r>   12.1437    0.0000 </r>
      </set>
      <set comment="kpoint 5">
       <r>  -69.6540    1.0000 </r>
       <r>  -69.5736    1.0000 </r>
       <r>  -69.5736    1.0000 </r>
       <r>   -3.0398    1.0000 </r>
       <r>   -2.7569    1.0000 </r>
       <r>   -2.5794    1.0000 </r>
       <r>   -2.5794    1.0000 </r>
       <r>   -2.4612    1.0000 </r>
       <r>   -1.7104    0.9700 </r>
       <r>   -0.2714    0.0000 </r>
       <r>    8.4862    0.0000 </r>
       <r>    8.4862    0.0000 </r>
       <r>   11.1665    0.0000 </r>
       <r>   11.5006    0.0000 </r>
       <r>   11.7810    0.0000 </r>
       <r>   12.1437    0.0000 </r>
      </set>
      <set comment="kpoint 6">
       <r>  -69.6552    1.0000 </r>
       <r>  -69.5997    1.0000 </r>
       <r>  -69.5986    1.0000 </r>
       <r>   -2.8975    1.0000 </r>
       <r>   -2.7208    1.0000 </r>
       <r>   -2.6502    1.0000 </r>
       <r>   -2.5814    1.0000 </r>
       <r>   -2.4832    1.0000 </r>
       <r>   -1.5593    0.7916 </r>
       <r>    0.0732    0.0000 </r>
       <r>    6.1362    0.0000 </r>
       <r>    8.5555    0.0000 </r>
       <r>    8.7881    0.0000 </r>
       <r>   11.8881    0.0000 </r>
       <r>   12.0063    0.0000 </r>
       <r>   12.6793    0.0000 </r>
      </set>
      <set comment="kpoint 7">
       <r>  -69.6070    1.0000 </r>
       <r>  -69.6026    1.0000 </r>
       <r>  -69.6001    1.0000 </r>
       <r>   -2.7982    1.0000 </r>
       <r>   -2.7466    1.0000 </r>
       <r>   -2.5615    1.0000 </r>
       <r>   -2.5326    1.0000 </r>
       <r>   -2.4894    1.0000 </r>
       <r>   -0.8849    0.0000 </r>
       <r>    0.9487    0.0000 </r>
       <r>    3.3241    0.0000 </r>
       <r>    5.9382    0.0000 </r>
       <r>    9.5492    0.0000 </r>
       <r>   12.6640    0.0000 </r>
       <r>   12.8828    0.0000 </r>
       <r>   13.5372    0.0000 </r>
      </set>
      <set comment="kpoint 8">
       <r>  -69.6090    1.0000 </r>
       <r>  -69.6062    1.0000 </r>
       <r>  -69.6062    1.0000 </r>
       <r>   -2.7934    1.0000 </r>
       <r>   -2.7785    1.0000 </r>
       <r>   -2.5592    1.0000 </r>
       <r>   -2.5592    1.0000 </r>
       <r>   -2.3964    1.0000 </r>
       <r>    0.0615    0.0000 </r>
       <r>    1.6461    0.0000 </r>
       <r>    1.6461    0.0000 </r>
       <r>    4.6621    0.0000 </r>
       <r>   10.0850    0.0000 </r>
       <r>   13.7431    0.0000 </r>
       <r>   13.7431    0.0000 </r>
       <r>   14.3512    0.0000 </r>
      </set>
      <set comment="kpoint 9">
       <r>  -69.6090    1.0000 </r>
       <r>  -69.6062    1.0000 </r>
       <r>  -69.6062    1.0000 </r>
       <r>   -2.7934    1.0000 </r>
       <r>   -2.7785    1.0000 </r>
       <r>   -2.5592    1.0000 </r>
       <r>   -2.5592    1.0000 </r>
       <r>   -2.3964    1.0000 </r>
       <r>    0.0615    0.0000 </r>
       <r>    1.6461    0.0000 </r>
       <r>    1.6461    0.0000 </r>
       <r>    4.6621    0.0000 </r>
       <r>   10.0850    0.0000 </r>
       <r>   13.7431    0.0000 </r>
       <r>   13.7431    0.0000 </r>
       <r>   14.3512    0.0000 </r>
      </set>
      <set comment="kpoint 10">
       <r>  -69.6400    1.0000 </r>
       <r>  -69.6292    1.0000 </r>
       <r>  -69.6125    1.0000 </r>
       <r>   -2.8410    1.0000 </r>
       <r>   -2.7249    1.0000 </r>
       <r>   -2.5494    1.0000 </r>
       <r>   -2.5452    1.0000 </r>
       <r>   -2.5405    1.0000 </r>
       <r>   -1.8073    0.9948 </r>
       <r>    2.4264    0.0000 </r>
       <r>    2.7096    0.0000 </r>
       <r>    7.2781    0.0000 </r>
       <r>    8.9758    0.0000 </r>
       <r>   11.3656    0.0000 </r>
       <r>   14.3471    0.0000 </r>
       <r>   14.3885    0.0000 </r>
      </set>
      <set comment="kpoint 11">
       <r>  -69.6002    1.0000 </r>
       <r>  -69.5769    1.0000 </r>
       <r>  -69.5714    1.0000 </r>
       <r>   -3.7427    1.0000 </r>
       <r>   -2.7666    1.0000 </r>
       <r>   -2.7336    1.0000 </r>
       <r>   -2.5219    1.0000 </r>
       <r>   -2.4895    1.0000 </r>
       <r>   -2.4879    1.0000 </r>
       <r>    4.5062    0.0000 </r>
       <r>    4.5509    0.0000 </r>
       <r>    7.4048    0.0000 </r>
       <r>    9.6246    0.0000 </r>
       <r>   11.8312    0.0000 </r>
       <r>   12.6520    0.0000 </r>
       <r>   13.5903    0.0000 </r>
      </set>
      <set comment="kpoint 12">
       <r>  -69.5060    1.0000 </r>
       <r>  -69.5060    1.0000 </r>
       <r>  -69.5060    1.0000 </r>
       <r>   -4.3419    1.0000 </r>
       <r>   -2.7736    1.0000 </r>
       <r>   -2.7736    1.0000 </r>
       <r>   -2.4451    1.0000 </r>
       <r>   -2.4451    1.0000 </r>
       <r>   -2.4451    1.0000 </r>
       <r>    6.7907    0.0000 </r>
       <r>    6.7907    0.0000 </r>
       <r>    6.7907    0.0000 </r>
       <r>    8.8027    0.0000 </r>
       <r>    9.2809    0.0000 </r>
       <r>    9.2809    0.0000 </r>
       <r>   18.8128    0.0000 </r>
      </set>
      <set comment="kpoint 13">
       <r>  -69.5060    1.0000 </r>
       <r>  -69.5060    1.0000 </r>
       <r>  -69.5060    1.0000 </r>
       <r>   -4.3419    1.0000 </r>
       <r>   -2.7736    1.0000 </r>
       <r>   -2.7736    1.0000 </r>
       <r>   -2.4451    1.0000 </r>
       <r>   -2.4451    1.0000 </r>
       <r>   -2.4451    1.0000 </r>
       <r>    6.7907    0.0000 </r>
       <r>    6.7907    0.0000 </r>
       <r>    6.7907    0.0000 </r>
       <r>    8.8027    0.0000 </r>
       <r>    9.2809    0.0000 </r>
       <r>    9.2809    0.0000 </r>
       <r>   18.8128    0.0000 </r>
      </set>
      <set comment="kpoint 14">
       <r>  -69.5808    1.0000 </r>
       <r>  -69.5808    1.0000 </r>
       <r>  -69.5781    1.0000 </r>
       <r>   -3.4414    1.0000 </r>
       <r>   -2.7239    1.0000 </r>
       <r>   -2.7239    1.0000 </r>
       <r>   -2.5179    1.0000 </r>
       <r>   -2.5179    1.0000 </r>
       <r>   -2.5012    1.0000 </r>
       <r>    4.8133    0.0000 </r>
       <r>    4.8133    0.0000 </r>
       <r>    4.8756    0.0000 </r>
       <r>   11.5825    0.0000 </r>
       <r>   12.6623    0.0000 </r>
       <r>   12.6623    0.0000 </r>
       <r>   13.5945    0.0000 </r>
      </set>
      <set comment="kpoint 15">
       <r>  -69.5977    1.0000 </r>
       <r>  -69.5818    1.0000 </r>
       <r>  -69.5818    1.0000 </r>
       <r>   -2.6951    1.0000 </r>
       <r>   -2.6484    1.0000 </r>
       <r>   -2.6484    1.0000 </r>
       <r>   -2.5112    1.0000 </r>
       <r>   -2.5112    1.0000 </r>
       <r>   -0.7421    0.0000 </r>
       <r>    3.5658    0.0000 </r>
       <r>    3.5658    0.0000 </r>
       <r>    4.0194    0.0000 </r>
       <r>    7.9599    0.0000 </r>
       <r>    8.7915    0.0000 </r>
       <r>    8.7915    0.0000 </r>
       <r>   12.6148    0.0000 </r>
      </set>
      <set comment="kpoint 16">
       <r>  -69.5987    1.0000 </r>
       <r>  -69.5987    1.0000 </r>
       <r>  -69.5987    1.0000 </r>
       <r>   -2.7323    1.0000 </r>
       <r>   -2.7323    1.0000 </r>
       <r>   -2.7323    1.0000 </r>
       <r>   -2.3867    1.0000 </r>
       <r>   -2.3867    1.0000 </r>
       <r>    2.1260    0.0000 </r>
       <r>    3.4306    0.0000 </r>
       <r>    3.4306    0.0000 </r>
       <r>    3.4306    0.0000 </r>
       <r>    6.9941    0.0000 </r>
       <r>    6.9941    0.0000 </r>
       <r>    6.9941    0.0000 </r>
       <r>    7.6146    0.0000 </r>
      </set>
      <set comment="kpoint 17">
       <r>  -69.5987    1.0000 </r>
       <r>  -69.5987    1.0000 </r>
       <r>  -69.5987    1.0000 </r>
       <r>   -2.7323    1.0000 </r>
       <r>   -2.7323    1.0000 </r>
       <r>   -2.7323    1.0000 </r>
       <r>   -2.3867    1.0000 </r>
       <r>   -2.3867    1.0000 </r>
       <r>    2.1260    0.0000 </r>
       <r>    3.4306    0.0000 </r>
       <r>    3.4306    0.0000 </r>
       <r>    3.4306    0.0000 </r>
       <r>    6.9941    0.0000 </r>
       <r>    6.9941    0.0000 </r>
       <r>    6.9941    0.0000 </r>
       <r>    7.6146    0.0000 </r>
      </set>
      <set comment="kpoint 18">
       <r>  -69.6145    1.0000 </r>
       <r>  -69.6097    1.0000 </r>
       <r>  -69.6055    1.0000 </r>
       <r>   -2.7209    1.0000 </r>
       <r>   -2.6961    1.0000 </r>
       <r>   -2.6555    1.0000 </r>
       <r>   -2.5157    1.0000 </r>
       <r>   -2.4505    1.0000 </r>
       <r>    0.1582    0.0000 </r>
       <r>    2.1195    0.0000 </r>
       <r>    4.2102    0.0000 </r>
       <r>    4.7304    0.0000 </r>
       <r>    6.7208    0.0000 </r>
       <r>    7.5542    0.0000 </r>
       <r>    9.4833    0.0000 </r>
       <r>   11.0805    0.0000 </r>
      </set>
      <set comment="kpoint 19">
       <r>  -69.6366    1.0000 </r>
       <r>  -69.6191    1.0000 </r>
       <r>  -69.5978    1.0000 </r>
       <r>   -2.7516    1.0000 </r>
       <r>   -2.6991    1.0000 </r>
       <r>   -2.6510    1.0000 </r>
       <r>   -2.6258    1.0000 </r>
       <r>   -2.5194    1.0000 </r>
       <r>   -1.3718    0.3037 </r>
       <r>    0.4091    0.0000 </r>
       <r>    6.3081    0.0000 </r>
       <r>    6.5778    0.0000 </r>
       <r>    8.5249    0.0000 </r>
       <r>    9.2826    0.0000 </r>
       <r>   13.9545    0.0000 </r>
       <r>   14.7584    0.0000 </r>
      </set>
      <set comment="kpoint 20">
       <r>  -69.6540    1.0000 </r>
       <r>  -69.5736    1.0000 </r>
       <r>  -69.5736    1.0000 </r>
       <r>   -3.0398    1.0000 </r>
       <r>   -2.7569    1.0000 </r>
       <r>   -2.5794    1.0000 </r>
       <r>   -2.5794    1.0000 </r>
       <r>   -2.4612    1.0000 </r>
       <r>   -1.7104    0.9700 </r>
       <r>   -0.2714    0.0000 </r>
       <r>    8.4862    0.0000 </r>
       <r>    8.4862    0.0000 </r>
       <r>   11.1665    0.0000 </r>
       <r>   11.5006    0.0000 </r>
       <r>   11.7810    0.0000 </r>
       <r>   12.1437    0.0000 </r>
      </set>
      <set comment="kpoint 21">
       <r>  -69.6090    1.0000 </r>
       <r>  -69.6062    1.0000 </r>
       <r>  -69.6062    1.0000 </r>
       <r>   -2.7934    1.0000 </r>
       <r>   -2.7785    1.0000 </r>
       <r>   -2.5592    1.0000 </r>
       <r>   -2.5592    1.0000 </r>
       <r>   -2.3964    1.0000 </r>
       <r>    0.0615    0.0000 </r>
       <r>    1.6461    0.0000 </r>
       <r>    1.6461    0.0000 </r>
       <r>    4.6621    0.0000 </r>
       <r>   10.0850    0.0000 </r>
       <r>   13.7431    0.0000 </r>
       <r>   13.7431    0.0000 </r>
       <r>   14.3512    0.0000 </r>
      </set>
      <set comment="kpoint 22">
       <r>  -69.6283    1.0000 </r>
       <r>  -69.6228    1.0000 </r>
       <r>  -69.6228    1.0000 </r>
       <r>   -2.7814    1.0000 </r>
       <r>   -2.6818    1.0000 </r>
       <r>   -2.6127    1.0000 </r>
       <r>   -2.6127    1.0000 </r>
       <r>   -2.4039    1.0000 </r>
       <r>    0.2993    0.0000 </r>
       <r>    1.9705    0.0000 </r>
       <r>    1.9705    0.0000 </r>
       <r>    4.9421    0.0000 </r>
       <r>    7.9744    0.0000 </r>
       <r>   10.7942    0.0000 </r>
       <r>   10.7942    0.0000 </r>
       <r>   12.2263    0.0000 </r>
      </set>
      <set comment="kpoint 23">
       <r>  -69.6415    1.0000 </r>
       <r>  -69.6313    1.0000 </r>
       <r>  -69.6313    1.0000 </r>
       <r>   -2.7505    1.0000 </r>
       <r>   -2.7105    1.0000 </r>
       <r>   -2.7105    1.0000 </r>
       <r>   -2.4814    1.0000 </r>
       <r>   -2.4036    1.0000 </r>
       <r>    1.0939    0.0000 </r>
       <r>    2.8005    0.0000 </r>
       <r>    2.8005    0.0000 </r>
       <r>    5.1847    0.0000 </r>
       <r>    5.7952    0.0000 </r>
       <r>    8.1976    0.0000 </r>
       <r>    8.1976    0.0000 </r>
       <r>    9.4569    0.0000 </r>
      </set>
      <set comment="kpoint 24">
       <r>  -69.5987    1.0000 </r>
       <r>  -69.5987    1.0000 </r>
       <r>  -69.5987    1.0000 </r>
       <r>   -2.7323    1.0000 </r>
       <r>   -2.7323    1.0000 </r>
       <r>   -2.7323    1.0000 </r>
       <r>   -2.3867    1.0000 </r>
       <r>   -2.3867    1.0000 </r>
       <r>    2.1260    0.0000 </r>
       <r>    3.4306    0.0000 </r>
       <r>    3.4306    0.0000 </r>
       <r>    3.4306    0.0000 </r>
       <r>    6.9941    0.0000 </r>
       <r>    6.9941    0.0000 </r>
       <r>    6.9941    0.0000 </r>
       <r>    7.6146    0.0000 </r>
      </set>
     </set>
    </set>
   </array>
  </eigenvalues>
  <separator name="orbital magnetization" >
   <v name="MAGDIPOLOUT">      0.00000000      0.00000000      0.00000000</v>
  </separator>
  <dos>
   <i name="efermi">     -1.44451858 </i>
   <total>
    <array>
     <dimension dim="1">gridpoints</dimension>
     <dimension dim="2">spin</dimension>
     <field>energy</field>
     <field>total</field>
     <field>integrated</field>
     <set>
      <set comment="spin 1">
       <r>   -74.0786     0.0000     0.0000 </r>
       <r>   -73.7542     0.0000     0.0000 </r>
       <r>   -73.4298     0.0000     0.0000 </r>
       <r>   -73.1054     0.0000     0.0000 </r>
       <r>   -72.7811     0.0000     0.0000 </r>
       <r>   -72.4567     0.0000     0.0000 </r>
       <r>   -72.1323     0.0000     0.0000 </r>
       <r>   -71.8079     0.0000     0.0000 </r>
       <r>   -71.4835     0.0000     0.0000 </r>
       <r>   -71.1591     0.0000     0.0000 </r>
       <r>   -70.8348     0.0000     0.0000 </r>
       <r>   -70.5104     0.0000     0.0000 </r>
       <r>   -70.1860     0.0004     0.0001 </r>
       <r>   -69.8616     0.5891     0.1912 </r>
       <r>   -69.5372    11.3175     3.8624 </r>
       <r>   -69.2129     6.4936     5.9688 </r>
       <r>   -68.8885     0.0961     6.0000 </r>
       <r>   -68.5641     0.0000     6.0000 </r>
       <r>   -68.2397     0.0000     6.0000 </r>
       <r>   -67.9153     0.0000     6.0000 </r>
       <r>   -67.5909     0.0000     6.0000 </r>
       <r>   -67.2666     0.0000     6.0000 </r>
       <r>   -66.9422     0.0000     6.0000 </r>
       <r>   -66.6178     0.0000     6.0000 </r>
       <r>   -66.2934     0.0000     6.0000 </r>
       <r>   -65.9690     0.0000     6.0000 </r>
       <r>   -65.6446     0.0000     6.0000 </r>
       <r>   -65.3203     0.0000     6.0000 </r>
       <r>   -64.9959     0.0000     6.0000 </r>
       <r>   -64.6715     0.0000     6.0000 </r>
       <r>   -64.3471     0.0000     6.0000 </r>
       <r>   -64.0227     0.0000     6.0000 </r>
       <r>   -63.6983     0.0000     6.0000 </r>
       <r>   -63.3740     0.0000     6.0000 </r>
       <r>   -63.0496     0.0000     6.0000 </r>
       <r>   -62.7252     0.0000     6.0000 </r>
       <r>   -62.4008     0.0000     6.0000 </r>
       <r>   -62.0764     0.0000     6.0000 </r>
       <r>   -61.7521     0.0000     6.0000 </r>
       <r>   -61.4277     0.0000     6.0000 </r>
       <r>   -61.1033     0.0000     6.0000 </r>
       <r>   -60.7789     0.0000     6.0000 </r>
       <r>   -60.4545     0.0000     6.0000 </r>
       <r>   -60.1301     0.0000     6.0000 </r>
       <r>   -59.8058     0.0000     6.0000 </r>
       <r>   -59.4814     0.0000     6.0000 </r>
       <r>   -59.1570     0.0000     6.0000 </r>
       <r>   -58.8326     0.0000     6.0000 </r>
       <r>   -58.5082     0.0000     6.0000 </r>
       <r>   -58.1838     0.0000     6.0000 </r>
       <r>   -57.8595     0.0000     6.0000 </r>
       <r>   -57.5351     0.0000     6.0000 </r>
       <r>   -57.2107     0.0000     6.0000 </r>
       <r>   -56.8863     0.0000     6.0000 </r>
       <r>   -56.5619     0.0000     6.0000 </r>
       <r>   -56.2375     0.0000     6.0000 </r>
       <r>   -55.9132     0.0000     6.0000 </r>
       <r>   -55.5888     0.0000     6.0000 </r>
       <r>   -55.2644     0.0000     6.0000 </r>
       <r>   -54.9400     0.0000     6.0000 </r>
       <r>   -54.6156     0.0000     6.0000 </r>
       <r>   -54.2913     0.0000     6.0000 </r>
       <r>   -53.9669     0.0000     6.0000 </r>
       <r>   -53.6425     0.0000     6.0000 </r>
       <r>   -53.3181     0.0000     6.0000 </r>
       <r>   -52.9937     0.0000     6.0000 </r>
       <r>   -52.6693     0.0000     6.0000 </r>
       <r>   -52.3450     0.0000     6.0000 </r>
       <r>   -52.0206     0.0000     6.0000 </r>
       <r>   -51.6962     0.0000     6.0000 </r>
       <r>   -51.3718     0.0000     6.0000 </r>
       <r>   -51.0474     0.0000     6.0000 </r>
       <r>   -50.7230     0.0000     6.0000 </r>
       <r>   -50.3987     0.0000     6.0000 </r>
       <r>   -50.0743     0.0000     6.0000 </r>
       <r>   -49.7499     0.0000     6.0000 </r>
       <r>   -49.4255     0.0000     6.0000 </r>
       <r>   -49.1011     0.0000     6.0000 </r>
       <r>   -48.7767     0.0000     6.0000 </r>
       <r>   -48.4524     0.0000     6.0000 </r>
       <r>   -48.1280     0.0000     6.0000 </r>
       <r>   -47.8036     0.0000     6.0000 </r>
       <r>   -47.4792     0.0000     6.0000 </r>
       <r>   -47.1548     0.0000     6.0000 </r>
       <r>   -46.8305     0.0000     6.0000 </r>
       <r>   -46.5061     0.0000     6.0000 </r>
       <r>   -46.1817     0.0000     6.0000 </r>
       <r>   -45.8573     0.0000     6.0000 </r>
       <r>   -45.5329     0.0000     6.0000 </r>
       <r>   -45.2085     0.0000     6.0000 </r>
       <r>   -44.8842     0.0000     6.0000 </r>
       <r>   -44.5598     0.0000     6.0000 </r>
       <r>   -44.2354     0.0000     6.0000 </r>
       <r>   -43.9110     0.0000     6.0000 </r>
       <r>   -43.5866     0.0000     6.0000 </r>
       <r>   -43.2622     0.0000     6.0000 </r>
       <r>   -42.9379     0.0000     6.0000 </r>
       <r>   -42.6135     0.0000     6.0000 </r>
       <r>   -42.2891     0.0000     6.0000 </r>
       <r>   -41.9647     0.0000     6.0000 </r>
       <r>   -41.6403     0.0000     6.0000 </r>
       <r>   -41.3160     0.0000     6.0000 </r>
       <r>   -40.9916     0.0000     6.0000 </r>
       <r>   -40.6672     0.0000     6.0000 </r>
       <r>   -40.3428     0.0000     6.0000 </r>
       <r>   -40.0184     0.0000     6.0000 </r>
       <r>   -39.6940     0.0000     6.0000 </r>
       <r>   -39.3697     0.0000     6.0000 </r>
       <r>   -39.0453     0.0000     6.0000 </r>
       <r>   -38.7209     0.0000     6.0000 </r>
       <r>   -38.3965     0.0000     6.0000 </r>
       <r>   -38.0721     0.0000     6.0000 </r>
       <r>   -37.7477     0.0000     6.0000 </r>
       <r>   -37.4234     0.0000     6.0000 </r>
       <r>   -37.0990     0.0000     6.0000 </r>
       <r>   -36.7746     0.0000     6.0000 </r>
       <r>   -36.4502     0.0000     6.0000 </r>
       <r>   -36.1258     0.0000     6.0000 </r>
       <r>   -35.8014     0.0000     6.0000 </r>
       <r>   -35.4771     0.0000     6.0000 </r>
       <r>   -35.1527     0.0000     6.0000 </r>
       <r>   -34.8283     0.0000     6.0000 </r>
       <r>   -34.5039     0.0000     6.0000 </r>
       <r>   -34.1795     0.0000     6.0000 </r>
       <r>   -33.8552     0.0000     6.0000 </r>
       <r>   -33.5308     0.0000     6.0000 </r>
       <r>   -33.2064     0.0000     6.0000 </r>
       <r>   -32.8820     0.0000     6.0000 </r>
       <r>   -32.5576     0.0000     6.0000 </r>
       <r>   -32.2332     0.0000     6.0000 </r>
       <r>   -31.9089     0.0000     6.0000 </r>
       <r>   -31.5845     0.0000     6.0000 </r>
       <r>   -31.2601     0.0000     6.0000 </r>
       <r>   -30.9357     0.0000     6.0000 </r>
       <r>   -30.6113     0.0000     6.0000 </r>
       <r>   -30.2869     0.0000     6.0000 </r>
       <r>   -29.9626     0.0000     6.0000 </r>
       <r>   -29.6382     0.0000     6.0000 </r>
       <r>   -29.3138     0.0000     6.0000 </r>
       <r>   -28.9894     0.0000     6.0000 </r>
       <r>   -28.6650     0.0000     6.0000 </r>
       <r>   -28.3406     0.0000     6.0000 </r>
       <r>   -28.0163     0.0000     6.0000 </r>
       <r>   -27.6919     0.0000     6.0000 </r>
       <r>   -27.3675     0.0000     6.0000 </r>
       <r>   -27.0431     0.0000     6.0000 </r>
       <r>   -26.7187     0.0000     6.0000 </r>
       <r>   -26.3944     0.0000     6.0000 </r>
       <r>   -26.0700     0.0000     6.0000 </r>
       <r>   -25.7456     0.0000     6.0000 </r>
       <r>   -25.4212     0.0000     6.0000 </r>
       <r>   -25.0968     0.0000     6.0000 </r>
       <r>   -24.7724     0.0000     6.0000 </r>
       <r>   -24.4481     0.0000     6.0000 </r>
       <r>   -24.1237     0.0000     6.0000 </r>
       <r>   -23.7993     0.0000     6.0000 </r>
       <r>   -23.4749     0.0000     6.0000 </r>
       <r>   -23.1505     0.0000     6.0000 </r>
       <r>   -22.8261     0.0000     6.0000 </r>
       <r>   -22.5018     0.0000     6.0000 </r>
       <r>   -22.1774     0.0000     6.0000 </r>
       <r>   -21.8530     0.0000     6.0000 </r>
       <r>   -21.5286     0.0000     6.0000 </r>
       <r>   -21.2042     0.0000     6.0000 </r>
       <r>   -20.8798     0.0000     6.0000 </r>
       <r>   -20.5555     0.0000     6.0000 </r>
       <r>   -20.2311     0.0000     6.0000 </r>
       <r>   -19.9067     0.0000     6.0000 </r>
       <r>   -19.5823     0.0000     6.0000 </r>
       <r>   -19.2579     0.0000     6.0000 </r>
       <r>   -18.9336     0.0000     6.0000 </r>
       <r>   -18.6092     0.0000     6.0000 </r>
       <r>   -18.2848     0.0000     6.0000 </r>
       <r>   -17.9604     0.0000     6.0000 </r>
       <r>   -17.6360     0.0000     6.0000 </r>
       <r>   -17.3116     0.0000     6.0000 </r>
       <r>   -16.9873     0.0000     6.0000 </r>
       <r>   -16.6629     0.0000     6.0000 </r>
       <r>   -16.3385     0.0000     6.0000 </r>
       <r>   -16.0141     0.0000     6.0000 </r>
       <r>   -15.6897     0.0000     6.0000 </r>
       <r>   -15.3653     0.0000     6.0000 </r>
       <r>   -15.0410     0.0000     6.0000 </r>
       <r>   -14.7166     0.0000     6.0000 </r>
       <r>   -14.3922     0.0000     6.0000 </r>
       <r>   -14.0678     0.0000     6.0000 </r>
       <r>   -13.7434     0.0000     6.0000 </r>
       <r>   -13.4190     0.0000     6.0000 </r>
       <r>   -13.0947     0.0000     6.0000 </r>
       <r>   -12.7703     0.0000     6.0000 </r>
       <r>   -12.4459     0.0000     6.0000 </r>
       <r>   -12.1215     0.0000     6.0000 </r>
       <r>   -11.7971     0.0000     6.0000 </r>
       <r>   -11.4728     0.0000     6.0000 </r>
       <r>   -11.1484     0.0000     6.0000 </r>
       <r>   -10.8240     0.0000     6.0000 </r>
       <r>   -10.4996     0.0000     6.0000 </r>
       <r>   -10.1752     0.0000     6.0000 </r>
       <r>    -9.8508     0.0000     6.0000 </r>
       <r>    -9.5265     0.0000     6.0000 </r>
       <r>    -9.2021     0.0000     6.0000 </r>
       <r>    -8.8777     0.0000     6.0000 </r>
       <r>    -8.5533     0.0000     6.0000 </r>
       <r>    -8.2289     0.0000     6.0000 </r>
       <r>    -7.9045     0.0000     6.0000 </r>
       <r>    -7.5802     0.0000     6.0000 </r>
       <r>    -7.2558     0.0000     6.0000 </r>
       <r>    -6.9314     0.0000     6.0000 </r>
       <r>    -6.6070     0.0000     6.0000 </r>
       <r>    -6.2826     0.0000     6.0000 </r>
       <r>    -5.9582     0.0000     6.0000 </r>
       <r>    -5.6339     0.0000     6.0000 </r>
       <r>    -5.3095     0.0000     6.0000 </r>
       <r>    -4.9851     0.0000     6.0000 </r>
       <r>    -4.6607     0.0093     6.0030 </r>
       <r>    -4.3363     0.3930     6.1305 </r>
       <r>    -4.0120     0.5185     6.2987 </r>
       <r>    -3.6876     0.2844     6.3910 </r>
       <r>    -3.3632     0.3693     6.5108 </r>
       <r>    -3.0388     0.9293     6.8122 </r>
       <r>    -2.7144     9.1092     9.7671 </r>
       <r>    -2.3900    16.7000    15.1843 </r>
       <r>    -2.0657     4.2784    16.5721 </r>
       <r>    -1.7413     0.5546    16.7520 </r>
       <r>    -1.4169     0.8052    17.0132 </r>
       <r>    -1.0925     0.2298    17.0878 </r>
       <r>    -0.7681     0.3006    17.1853 </r>
       <r>    -0.4437     0.2809    17.2764 </r>
       <r>    -0.1194     0.6870    17.4992 </r>
       <r>     0.2050     1.1108    17.8596 </r>
       <r>     0.5294     0.6245    18.0622 </r>
       <r>     0.8538     0.1411    18.1079 </r>
       <r>     1.1782     0.3679    18.2273 </r>
       <r>     1.5025     0.5012    18.3899 </r>
       <r>     1.8269     1.3098    18.8147 </r>
       <r>     2.1513     1.1174    19.1772 </r>
       <r>     2.4757     0.6562    19.3901 </r>
       <r>     2.8001     0.5271    19.5610 </r>
       <r>     3.1245     0.3754    19.6828 </r>
       <r>     3.4488     1.5380    20.1817 </r>
       <r>     3.7732     1.4513    20.6525 </r>
       <r>     4.0976     0.3295    20.7594 </r>
       <r>     4.4220     0.6038    20.9552 </r>
       <r>     4.7464     1.2917    21.3742 </r>
       <r>     5.0708     1.1230    21.7385 </r>
       <r>     5.3951     0.2751    21.8278 </r>
       <r>     5.7195     0.1094    21.8632 </r>
       <r>     6.0439     0.4271    22.0018 </r>
       <r>     6.3683     0.4316    22.1418 </r>
       <r>     6.6927     0.9910    22.4632 </r>
       <r>     7.0171     3.2403    23.5143 </r>
       <r>     7.3414     1.7535    24.0832 </r>
       <r>     7.6658     0.9809    24.4014 </r>
       <r>     7.9902     1.0162    24.7310 </r>
       <r>     8.3146     0.9228    25.0303 </r>
       <r>     8.6390     1.8270    25.6230 </r>
       <r>     8.9633     1.6430    26.1559 </r>
       <r>     9.2877     1.4717    26.6334 </r>
       <r>     9.6121     1.7566    27.2032 </r>
       <r>     9.9365     0.5774    27.3905 </r>
       <r>    10.2609     0.8167    27.6554 </r>
       <r>    10.5853     0.3123    27.7567 </r>
       <r>    10.9096     0.4427    27.9003 </r>
       <r>    11.2340     0.8679    28.1818 </r>
       <r>    11.5584     1.1155    28.5437 </r>
       <r>    11.8828     1.3293    28.9749 </r>
       <r>    12.2072     1.3247    29.4046 </r>
       <r>    12.5316     0.8394    29.6769 </r>
       <r>    12.8559     1.2381    30.0785 </r>
       <r>    13.1803     0.2760    30.1680 </r>
       <r>    13.5047     0.5403    30.3433 </r>
       <r>    13.8291     1.8695    30.9497 </r>
       <r>    14.1535     0.7422    31.1905 </r>
       <r>    14.4779     0.9609    31.5022 </r>
       <r>    14.8022     0.4087    31.6348 </r>
       <r>    15.1266     0.0971    31.6663 </r>
       <r>    15.4510     0.0012    31.6667 </r>
       <r>    15.7754     0.0007    31.6669 </r>
       <r>    16.0998     0.0782    31.6922 </r>
       <r>    16.4241     0.1686    31.7469 </r>
       <r>    16.7485     0.0094    31.7500 </r>
       <r>    17.0729     0.0000    31.7500 </r>
       <r>    17.3973     0.0000    31.7500 </r>
       <r>    17.7217     0.0000    31.7500 </r>
       <r>    18.0461     0.0000    31.7500 </r>
       <r>    18.3704     0.0007    31.7502 </r>
       <r>    18.6948     0.1551    31.8005 </r>
       <r>    19.0192     0.5593    31.9820 </r>
       <r>    19.3436     0.0556    32.0000 </r>
       <r>    19.6680     0.0001    32.0000 </r>
       <r>    19.9924     0.0000    32.0000 </r>
       <r>    20.3167     0.0000    32.0000 </r>
       <r>    20.6411     0.0000    32.0000 </r>
       <r>    20.9655     0.0000    32.0000 </r>
       <r>    21.2899     0.0000    32.0000 </r>
       <r>    21.6143     0.0000    32.0000 </r>
       <r>    21.9387     0.0000    32.0000 </r>
       <r>    22.2630     0.0000    32.0000 </r>
       <r>    22.5874     0.0000    32.0000 </r>
       <r>    22.9118     0.0000    32.0000 </r>
       <r>    23.2362     0.0000    32.0000 </r>
      </set>
     </set>
    </array>
   </total>
  </dos>
 </calculation>
 <structure name="finalpos" >
  <crystal>
   <varray name="basis" >
    <v>       3.61000000       0.00000000       0.00000000 </v>
    <v>       0.00000000       3.61000000       0.00000000 </v>
    <v>       0.00000000       0.00000000       3.61000000 </v>
   </varray>
   <i name="volume">     47.04588100 </i>
   <varray name="rec_basis" >
    <v>       0.27700831       0.00000000       0.00000000 </v>
    <v>       0.00000000       0.27700831       0.00000000 </v>
    <v>       0.00000000       0.00000000       0.27700831 </v>
   </varray>
  </crystal>
  <varray name="positions" >
   <v>       0.00000000       0.00000000       0.00000000 </v>
  </varray>
 </structure>
</modeling>
