  32  32   0   0
  0.1648726E+02  0.8080400E-09  0.8080400E-09  0.8080400E-09  0.1000000E-14
   300.000000000000     
  CAR 
 Al                                      
     12.17404811     -3.88542187  301      7.66131620      1.00000000
     -3.885  0.0000E+00  0.0000E+00
     -3.832  0.0000E+00  0.0000E+00
     -3.778  0.0000E+00  0.0000E+00
     -3.725  0.0000E+00  0.0000E+00
     -3.671  0.0000E+00  0.0000E+00
     -3.618  0.0000E+00  0.0000E+00
     -3.564  0.0000E+00  0.0000E+00
     -3.511  0.0000E+00  0.0000E+00
     -3.457  0.0000E+00  0.0000E+00
     -3.404  0.3069E-03  0.1647E-04
     -3.350  0.2140E-02  0.1313E-03
     -3.297  0.1700E-01  0.1044E-02
     -3.243  0.1313E+00  0.8090E-02
     -3.190  0.8300E+00  0.5264E-01
     -3.136  0.2187E+01  0.1701E+00
     -3.082  0.1230E+01  0.2361E+00
     -3.029  0.2250E+00  0.2482E+00
     -2.975  0.2984E-01  0.2498E+00
     -2.922  0.3225E-03  0.2500E+00
     -2.868  0.3693E-02  0.2502E+00
     -2.815  0.2845E-01  0.2517E+00
     -2.761  0.2147E+00  0.2633E+00
     -2.708  0.1286E+01  0.3323E+00
     -2.654  0.4454E+01  0.5714E+00
     -2.601  0.7052E+01  0.9500E+00
     -2.547  0.7002E+01  0.1326E+01
     -2.494  0.5285E+01  0.1610E+01
     -2.440  0.2059E+01  0.1721E+01
     -2.387  0.4634E+00  0.1746E+01
     -2.333  0.1059E+00  0.1752E+01
     -2.279  0.2849E+00  0.1768E+01
     -2.226  0.1357E+01  0.1840E+01
     -2.172  0.4021E+01  0.2056E+01
     -2.119  0.7091E+01  0.2437E+01
     -2.065  0.8939E+01  0.2917E+01
     -2.012  0.9589E+01  0.3432E+01
     -1.958  0.9084E+01  0.3920E+01
     -1.905  0.7464E+01  0.4321E+01
     -1.851  0.5046E+01  0.4593E+01
     -1.798  0.2454E+01  0.4725E+01
     -1.744  0.1387E+01  0.4800E+01
     -1.691  0.1799E+01  0.4897E+01
     -1.637  0.2693E+01  0.5042E+01
     -1.584  0.3577E+01  0.5234E+01
     -1.530  0.4204E+01  0.5459E+01
     -1.477  0.4521E+01  0.5702E+01
     -1.423  0.4501E+01  0.5944E+01
     -1.369  0.4226E+01  0.6171E+01
     -1.316  0.3699E+01  0.6370E+01
     -1.262  0.3042E+01  0.6534E+01
     -1.209  0.2310E+01  0.6658E+01
     -1.155  0.1784E+01  0.6754E+01
     -1.102  0.1998E+01  0.6861E+01
     -1.048  0.2686E+01  0.7006E+01
     -0.995  0.3308E+01  0.7183E+01
     -0.941  0.3773E+01  0.7386E+01
     -0.888  0.3977E+01  0.7600E+01
     -0.834  0.3806E+01  0.7804E+01
     -0.781  0.3281E+01  0.7981E+01
     -0.727  0.2705E+01  0.8126E+01
     -0.674  0.2275E+01  0.8248E+01
     -0.620  0.2849E+01  0.8402E+01
     -0.566  0.5199E+01  0.8681E+01
     -0.513  0.8490E+01  0.9137E+01
     -0.459  0.1154E+02  0.9757E+01
     -0.406  0.1389E+02  0.1050E+02
     -0.352  0.1490E+02  0.1130E+02
     -0.299  0.1459E+02  0.1209E+02
     -0.245  0.1324E+02  0.1280E+02
     -0.192  0.1103E+02  0.1339E+02
     -0.138  0.8349E+01  0.1384E+02
     -0.085  0.6285E+01  0.1418E+02
     -0.031  0.6214E+01  0.1451E+02
      0.022  0.8178E+01  0.1495E+02
      0.076  0.1083E+02  0.1553E+02
      0.129  0.1291E+02  0.1623E+02
      0.183  0.1414E+02  0.1699E+02
      0.237  0.1434E+02  0.1776E+02
      0.290  0.1348E+02  0.1848E+02
      0.344  0.1186E+02  0.1912E+02
      0.397  0.9427E+01  0.1963E+02
      0.451  0.6336E+01  0.1997E+02
      0.504  0.3348E+01  0.2015E+02
      0.558  0.1342E+01  0.2022E+02
      0.611  0.4079E+00  0.2024E+02
      0.665  0.1039E+00  0.2025E+02
      0.718  0.2475E-01  0.2025E+02
      0.772  0.6203E-02  0.2025E+02
      0.825  0.1059E-01  0.2025E+02
      0.879  0.6040E-01  0.2025E+02
      0.932  0.2904E+00  0.2027E+02
      0.986  0.9559E+00  0.2032E+02
      1.039  0.2078E+01  0.2043E+02
      1.093  0.3331E+01  0.2061E+02
      1.147  0.4401E+01  0.2085E+02
      1.200  0.5165E+01  0.2112E+02
      1.254  0.5714E+01  0.2143E+02
      1.307  0.6049E+01  0.2176E+02
      1.361  0.5977E+01  0.2208E+02
      1.414  0.5522E+01  0.2237E+02
      1.468  0.5083E+01  0.2265E+02
      1.521  0.4819E+01  0.2291E+02
      1.575  0.5385E+01  0.2320E+02
      1.628  0.7627E+01  0.2361E+02
      1.682  0.1080E+02  0.2419E+02
      1.735  0.1398E+02  0.2494E+02
      1.789  0.1644E+02  0.2582E+02
      1.842  0.1775E+02  0.2677E+02
      1.896  0.1783E+02  0.2773E+02
      1.950  0.1665E+02  0.2863E+02
      2.003  0.1430E+02  0.2940E+02
      2.057  0.1132E+02  0.3000E+02
      2.110  0.8186E+01  0.3044E+02
      2.164  0.6489E+01  0.3079E+02
      2.217  0.8364E+01  0.3124E+02
      2.271  0.1216E+02  0.3190E+02
      2.324  0.1478E+02  0.3269E+02
      2.378  0.1611E+02  0.3356E+02
      2.431  0.1634E+02  0.3443E+02
      2.485  0.1547E+02  0.3527E+02
      2.538  0.1425E+02  0.3603E+02
      2.592  0.1242E+02  0.3670E+02
      2.645  0.9916E+01  0.3723E+02
      2.699  0.8235E+01  0.3768E+02
      2.752  0.8017E+01  0.3811E+02
      2.806  0.8547E+01  0.3857E+02
      2.860  0.9099E+01  0.3906E+02
      2.913  0.9368E+01  0.3956E+02
      2.967  0.9321E+01  0.4006E+02
      3.020  0.9118E+01  0.4055E+02
      3.074  0.8597E+01  0.4101E+02
      3.127  0.7784E+01  0.4143E+02
      3.181  0.6909E+01  0.4180E+02
      3.234  0.6333E+01  0.4214E+02
      3.288  0.6458E+01  0.4249E+02
      3.341  0.7691E+01  0.4290E+02
      3.395  0.8386E+01  0.4335E+02
      3.448  0.5323E+01  0.4364E+02
      3.502  0.1862E+01  0.4374E+02
      3.555  0.1670E+01  0.4383E+02
      3.609  0.4439E+01  0.4407E+02
      3.663  0.6113E+01  0.4440E+02
      3.716  0.4324E+01  0.4463E+02
      3.770  0.2881E+01  0.4478E+02
      3.823  0.4300E+01  0.4501E+02
      3.877  0.8657E+01  0.4548E+02
      3.930  0.1373E+02  0.4622E+02
      3.984  0.1744E+02  0.4715E+02
      4.037  0.1907E+02  0.4818E+02
      4.091  0.1797E+02  0.4914E+02
      4.144  0.1501E+02  0.4995E+02
      4.198  0.1255E+02  0.5062E+02
      4.251  0.1347E+02  0.5135E+02
      4.305  0.1699E+02  0.5226E+02
      4.358  0.1933E+02  0.5330E+02
      4.412  0.1968E+02  0.5436E+02
      4.466  0.1876E+02  0.5537E+02
      4.519  0.1555E+02  0.5620E+02
      4.573  0.1185E+02  0.5684E+02
      4.626  0.1317E+02  0.5755E+02
      4.680  0.1782E+02  0.5851E+02
      4.733  0.2034E+02  0.5960E+02
      4.787  0.1986E+02  0.6066E+02
      4.840  0.1681E+02  0.6157E+02
      4.894  0.1177E+02  0.6220E+02
      4.947  0.6688E+01  0.6256E+02
      5.001  0.4196E+01  0.6279E+02
      5.054  0.5601E+01  0.6309E+02
      5.108  0.5302E+01  0.6337E+02
      5.161  0.1922E+01  0.6348E+02
      5.215  0.3638E+00  0.6350E+02
      5.268  0.5126E-01  0.6350E+02
      5.322  0.6356E-01  0.6350E+02
      5.376  0.4275E+00  0.6353E+02
      5.429  0.2269E+01  0.6365E+02
      5.483  0.7272E+01  0.6404E+02
      5.536  0.1233E+02  0.6470E+02
      5.590  0.1294E+02  0.6540E+02
      5.643  0.1116E+02  0.6600E+02
      5.697  0.6505E+01  0.6634E+02
      5.750  0.2259E+01  0.6647E+02
      5.804  0.6620E+00  0.6650E+02
      5.857  0.8849E+00  0.6655E+02
      5.911  0.3014E+01  0.6671E+02
      5.964  0.7672E+01  0.6713E+02
      6.018  0.1413E+02  0.6788E+02
      6.071  0.2094E+02  0.6901E+02
      6.125  0.2568E+02  0.7039E+02
      6.179  0.2746E+02  0.7186E+02
      6.232  0.2621E+02  0.7327E+02
      6.286  0.2323E+02  0.7452E+02
      6.339  0.1798E+02  0.7549E+02
      6.393  0.9824E+01  0.7601E+02
      6.446  0.3741E+01  0.7622E+02
      6.500  0.3060E+01  0.7638E+02
      6.553  0.7503E+01  0.7679E+02
      6.607  0.1289E+02  0.7748E+02
      6.660  0.1412E+02  0.7824E+02
      6.714  0.1189E+02  0.7888E+02
      6.767  0.9189E+01  0.7937E+02
      6.821  0.1158E+02  0.7999E+02
      6.874  0.1794E+02  0.8096E+02
      6.928  0.2176E+02  0.8212E+02
      6.981  0.2158E+02  0.8328E+02
      7.035  0.1867E+02  0.8429E+02
      7.089  0.1672E+02  0.8519E+02
      7.142  0.1638E+02  0.8607E+02
      7.196  0.1620E+02  0.8694E+02
      7.249  0.1563E+02  0.8778E+02
      7.303  0.1476E+02  0.8857E+02
      7.356  0.1416E+02  0.8933E+02
      7.410  0.1517E+02  0.9015E+02
      7.463  0.1989E+02  0.9122E+02
      7.517  0.2624E+02  0.9262E+02
      7.570  0.2934E+02  0.9420E+02
      7.624  0.2803E+02  0.9571E+02
      7.677  0.2345E+02  0.9697E+02
      7.731  0.1821E+02  0.9795E+02
      7.784  0.1423E+02  0.9871E+02
      7.838  0.1160E+02  0.9934E+02
      7.892  0.9435E+01  0.9984E+02
      7.945  0.7309E+01  0.1002E+03
      7.999  0.5318E+01  0.1005E+03
      8.052  0.4066E+01  0.1007E+03
      8.106  0.3650E+01  0.1009E+03
      8.159  0.3524E+01  0.1011E+03
      8.213  0.3288E+01  0.1013E+03
      8.266  0.2939E+01  0.1015E+03
      8.320  0.2450E+01  0.1016E+03
      8.373  0.1688E+01  0.1017E+03
      8.427  0.8572E+00  0.1017E+03
      8.480  0.3524E+00  0.1017E+03
      8.534  0.4246E+00  0.1018E+03
      8.587  0.1599E+01  0.1019E+03
      8.641  0.5064E+01  0.1021E+03
      8.694  0.1124E+02  0.1027E+03
      8.748  0.1775E+02  0.1037E+03
      8.802  0.2210E+02  0.1049E+03
      8.855  0.2449E+02  0.1062E+03
      8.909  0.2609E+02  0.1076E+03
      8.962  0.2689E+02  0.1090E+03
      9.016  0.2700E+02  0.1105E+03
      9.069  0.2631E+02  0.1119E+03
      9.123  0.2462E+02  0.1132E+03
      9.176  0.2249E+02  0.1144E+03
      9.230  0.1923E+02  0.1155E+03
      9.283  0.1475E+02  0.1163E+03
      9.337  0.9619E+01  0.1168E+03
      9.390  0.5149E+01  0.1171E+03
      9.444  0.2305E+01  0.1172E+03
      9.497  0.9107E+00  0.1172E+03
      9.551  0.4991E+00  0.1173E+03
      9.605  0.1124E+01  0.1173E+03
      9.658  0.4100E+01  0.1175E+03
      9.712  0.9617E+01  0.1181E+03
      9.765  0.1311E+02  0.1188E+03
      9.819  0.1260E+02  0.1194E+03
      9.872  0.9410E+01  0.1199E+03
      9.926  0.5680E+01  0.1202E+03
      9.979  0.4840E+01  0.1205E+03
     10.033  0.6632E+01  0.1209E+03
     10.086  0.8817E+01  0.1213E+03
     10.140  0.1042E+02  0.1219E+03
     10.193  0.1147E+02  0.1225E+03
     10.247  0.1206E+02  0.1232E+03
     10.300  0.1213E+02  0.1238E+03
     10.354  0.1152E+02  0.1244E+03
     10.408  0.1074E+02  0.1250E+03
     10.461  0.1057E+02  0.1256E+03
     10.515  0.1085E+02  0.1262E+03
     10.568  0.8936E+01  0.1266E+03
     10.622  0.4695E+01  0.1269E+03
     10.675  0.1897E+01  0.1270E+03
     10.729  0.1704E+01  0.1271E+03
     10.782  0.3128E+01  0.1273E+03
     10.836  0.4183E+01  0.1275E+03
     10.889  0.3179E+01  0.1277E+03
     10.943  0.1397E+01  0.1277E+03
     10.996  0.5207E+00  0.1278E+03
     11.050  0.7199E+00  0.1278E+03
     11.103  0.1929E+01  0.1279E+03
     11.157  0.3823E+01  0.1281E+03
     11.210  0.5474E+01  0.1284E+03
     11.264  0.6390E+01  0.1287E+03
     11.318  0.6613E+01  0.1291E+03
     11.371  0.6234E+01  0.1294E+03
     11.425  0.5475E+01  0.1297E+03
     11.478  0.3804E+01  0.1299E+03
     11.532  0.1124E+01  0.1300E+03
     11.585  0.1648E+00  0.1300E+03
     11.639  0.1738E-01  0.1300E+03
     11.692  0.0000E+00  0.1300E+03
     11.746  0.0000E+00  0.1300E+03
     11.799  0.0000E+00  0.1300E+03
     11.853  0.0000E+00  0.1300E+03
     11.906  0.0000E+00  0.1300E+03
     11.960  0.0000E+00  0.1300E+03
     12.013  0.0000E+00  0.1300E+03
     12.067  0.0000E+00  0.1300E+03
     12.121  0.0000E+00  0.1300E+03
     12.174  0.0000E+00  0.1300E+03
     12.20212735     -3.88654294  301      7.66110942      1.00000000
     -3.887  0.0000E+00  0.0000E+00
     -3.833  0.0000E+00  0.0000E+00
     -3.779  0.0000E+00  0.0000E+00
     -3.726  0.0000E+00  0.0000E+00
     -3.672  0.0000E+00  0.0000E+00
     -3.618  0.0000E+00  0.0000E+00
     -3.565  0.0000E+00  0.0000E+00
     -3.511  0.0000E+00  0.0000E+00
     -3.458  0.0000E+00  0.0000E+00
     -3.404  0.3101E-07  0.1663E-08
     -3.350  0.2157E-06  0.1323E-07
     -3.297  0.1710E-05  0.1049E-06
     -3.243  0.1318E-04  0.8116E-06
     -3.189  0.8313E-04  0.5270E-05
     -3.136  0.2188E-03  0.1700E-04
     -3.082  0.1231E-03  0.2361E-04
     -3.028  0.2257E-04  0.2482E-04
     -2.975  0.3000E-05  0.2498E-04
     -2.921  0.0000E+00  0.2500E-04
     -2.868  0.1698E-06  0.2501E-04
     -2.814  0.1181E-05  0.2507E-04
     -2.760  0.9691E-05  0.2559E-04
     -2.707  0.7247E-04  0.2948E-04
     -2.653  0.3954E-03  0.5069E-04
     -2.599  0.7917E-03  0.9315E-04
     -2.546  0.7953E-03  0.1358E-03
     -2.492  0.5731E-03  0.1665E-03
     -2.439  0.1361E-03  0.1738E-03
     -2.385  0.1852E-04  0.1749E-03
     -2.331  0.4448E-06  0.1750E-03
     -2.278  0.3743E-05  0.1752E-03
     -2.224  0.2857E-04  0.1768E-03
     -2.170  0.1833E-03  0.1866E-03
     -2.117  0.6493E-03  0.2214E-03
     -2.063  0.1209E-02  0.2862E-03
     -2.010  0.1363E-02  0.3594E-03
     -1.956  0.8710E-03  0.4061E-03
     -1.902  0.6944E-03  0.4433E-03
     -1.849  0.4531E-03  0.4678E-03
     -1.795  0.1154E-03  0.4740E-03
     -1.741  0.2020E-04  0.4751E-03
     -1.688  0.2946E-04  0.4767E-03
     -1.634  0.1703E-03  0.4859E-03
     -1.581  0.5000E-03  0.5127E-03
     -1.527  0.5863E-03  0.5441E-03
     -1.473  0.5043E-03  0.5712E-03
     -1.420  0.6084E-03  0.6038E-03
     -1.366  0.5676E-03  0.6342E-03
     -1.312  0.3008E-03  0.6504E-03
     -1.259  0.2336E-03  0.6630E-03
     -1.205  0.1775E-03  0.6725E-03
     -1.151  0.4511E-04  0.6750E-03
     -1.098  0.4473E-04  0.6774E-03
     -1.044  0.1904E-03  0.6876E-03
     -0.991  0.3797E-03  0.7080E-03
     -0.937  0.5700E-03  0.7386E-03
     -0.883  0.5831E-03  0.7698E-03
     -0.830  0.4417E-03  0.7936E-03
     -0.776  0.2318E-03  0.8060E-03
     -0.722  0.2401E-03  0.8190E-03
     -0.669  0.1043E-03  0.8246E-03
     -0.615  0.7954E-04  0.8289E-03
     -0.562  0.2959E-03  0.8447E-03
     -0.508  0.6814E-03  0.8813E-03
     -0.454  0.1158E-02  0.9434E-03
     -0.401  0.1631E-02  0.1031E-02
     -0.347  0.1896E-02  0.1133E-02
     -0.293  0.2003E-02  0.1240E-02
     -0.240  0.1676E-02  0.1330E-02
     -0.186  0.9041E-03  0.1379E-02
     -0.133  0.4289E-03  0.1402E-02
     -0.079  0.3650E-03  0.1421E-02
     -0.025  0.5024E-03  0.1448E-02
      0.028  0.8149E-03  0.1492E-02
      0.082  0.1082E-02  0.1550E-02
      0.136  0.1107E-02  0.1610E-02
      0.189  0.1525E-02  0.1691E-02
      0.243  0.1769E-02  0.1786E-02
      0.297  0.1610E-02  0.1873E-02
      0.350  0.1254E-02  0.1940E-02
      0.404  0.6446E-03  0.1975E-02
      0.457  0.4299E-03  0.1998E-02
      0.511  0.3454E-03  0.2016E-02
      0.565  0.1325E-03  0.2024E-02
      0.618  0.2218E-04  0.2025E-02
      0.672  0.2594E-05  0.2025E-02
      0.726  0.0000E+00  0.2025E-02
      0.779  0.0000E+00  0.2025E-02
      0.833  0.0000E+00  0.2025E-02
      0.886  0.6129E-07  0.2025E-02
      0.940  0.4602E-06  0.2025E-02
      0.994  0.3653E-05  0.2025E-02
      1.047  0.2833E-04  0.2027E-02
      1.101  0.1804E-03  0.2036E-02
      1.155  0.5457E-03  0.2066E-02
      1.208  0.6619E-03  0.2101E-02
      1.262  0.7807E-03  0.2143E-02
      1.315  0.8122E-03  0.2187E-02
      1.369  0.7931E-03  0.2229E-02
      1.423  0.5092E-03  0.2257E-02
      1.476  0.4741E-03  0.2282E-02
      1.530  0.3464E-03  0.2301E-02
      1.584  0.3030E-03  0.2317E-02
      1.637  0.4155E-03  0.2339E-02
      1.691  0.1069E-02  0.2397E-02
      1.744  0.1694E-02  0.2487E-02
      1.798  0.1804E-02  0.2584E-02
      1.852  0.1953E-02  0.2689E-02
      1.905  0.1910E-02  0.2792E-02
      1.959  0.1656E-02  0.2880E-02
      2.013  0.1361E-02  0.2954E-02
      2.066  0.1082E-02  0.3012E-02
      2.120  0.8430E-03  0.3057E-02
      2.174  0.5496E-03  0.3087E-02
      2.227  0.7989E-03  0.3130E-02
      2.281  0.1246E-02  0.3197E-02
      2.334  0.1421E-02  0.3273E-02
      2.388  0.1527E-02  0.3355E-02
      2.442  0.1638E-02  0.3443E-02
      2.495  0.1212E-02  0.3508E-02
      2.549  0.1222E-02  0.3573E-02
      2.603  0.1509E-02  0.3654E-02
      2.656  0.9934E-03  0.3708E-02
      2.710  0.8419E-03  0.3753E-02
      2.763  0.9588E-03  0.3804E-02
      2.817  0.1006E-02  0.3859E-02
      2.871  0.1033E-02  0.3914E-02
      2.924  0.1000E-02  0.3968E-02
      2.978  0.9345E-03  0.4018E-02
      3.032  0.7428E-03  0.4058E-02
      3.085  0.6459E-03  0.4092E-02
      3.139  0.8301E-03  0.4137E-02
      3.192  0.1004E-02  0.4191E-02
      3.246  0.5878E-03  0.4223E-02
      3.300  0.4446E-03  0.4246E-02
      3.353  0.7792E-03  0.4288E-02
      3.407  0.9557E-03  0.4340E-02
      3.461  0.5257E-03  0.4368E-02
      3.514  0.1346E-03  0.4375E-02
      3.568  0.1299E-03  0.4382E-02
      3.622  0.4259E-03  0.4405E-02
      3.675  0.6341E-03  0.4439E-02
      3.729  0.4677E-03  0.4464E-02
      3.782  0.1935E-03  0.4474E-02
      3.836  0.1614E-03  0.4483E-02
      3.890  0.4570E-03  0.4508E-02
      3.943  0.1182E-02  0.4571E-02
      3.997  0.2291E-02  0.4694E-02
      4.051  0.2796E-02  0.4844E-02
      4.104  0.2279E-02  0.4966E-02
      4.158  0.1217E-02  0.5032E-02
      4.211  0.7476E-03  0.5072E-02
      4.265  0.1146E-02  0.5133E-02
      4.319  0.1917E-02  0.5236E-02
      4.372  0.2060E-02  0.5347E-02
      4.426  0.1987E-02  0.5454E-02
      4.480  0.1864E-02  0.5554E-02
      4.533  0.1276E-02  0.5622E-02
      4.587  0.9438E-03  0.5673E-02
      4.640  0.1341E-02  0.5745E-02
      4.694  0.1769E-02  0.5840E-02
      4.748  0.2015E-02  0.5948E-02
      4.801  0.1990E-02  0.6055E-02
      4.855  0.1896E-02  0.6157E-02
      4.909  0.1338E-02  0.6229E-02
      4.962  0.6386E-03  0.6263E-02
      5.016  0.3644E-03  0.6283E-02
      5.069  0.5787E-03  0.6314E-02
      5.123  0.5135E-03  0.6341E-02
      5.177  0.1371E-03  0.6349E-02
      5.230  0.2008E-04  0.6350E-02
      5.284  0.1629E-05  0.6350E-02
      5.338  0.1195E-05  0.6350E-02
      5.391  0.9363E-05  0.6351E-02
      5.445  0.7147E-04  0.6354E-02
      5.499  0.4418E-03  0.6378E-02
      5.552  0.1297E-02  0.6448E-02
      5.606  0.1470E-02  0.6527E-02
      5.659  0.1470E-02  0.6605E-02
      5.713  0.6878E-03  0.6642E-02
      5.767  0.1220E-03  0.6649E-02
      5.820  0.1706E-04  0.6650E-02
      5.874  0.6654E-05  0.6650E-02
      5.928  0.5071E-04  0.6653E-02
      5.981  0.3154E-03  0.6670E-02
      6.035  0.1125E-02  0.6730E-02
      6.088  0.2353E-02  0.6857E-02
      6.142  0.3214E-02  0.7029E-02
      6.196  0.3102E-02  0.7195E-02
      6.249  0.2774E-02  0.7344E-02
      6.303  0.2294E-02  0.7467E-02
      6.357  0.1788E-02  0.7564E-02
      6.410  0.9017E-03  0.7612E-02
      6.464  0.2197E-03  0.7624E-02
      6.517  0.1214E-03  0.7631E-02
      6.571  0.5264E-03  0.7659E-02
      6.625  0.1428E-02  0.7736E-02
      6.678  0.1824E-02  0.7833E-02
      6.732  0.1272E-02  0.7902E-02
      6.786  0.5966E-03  0.7934E-02
      6.839  0.9848E-03  0.7987E-02
      6.893  0.1752E-02  0.8081E-02
      6.946  0.2065E-02  0.8191E-02
      7.000  0.2235E-02  0.8311E-02
      7.054  0.1978E-02  0.8417E-02
      7.107  0.1801E-02  0.8514E-02
      7.161  0.1848E-02  0.8613E-02
      7.215  0.1668E-02  0.8703E-02
      7.268  0.1504E-02  0.8784E-02
      7.322  0.1598E-02  0.8870E-02
      7.376  0.1239E-02  0.8936E-02
      7.429  0.1086E-02  0.8994E-02
      7.483  0.1460E-02  0.9073E-02
      7.536  0.2629E-02  0.9214E-02
      7.590  0.3298E-02  0.9391E-02
      7.644  0.2959E-02  0.9550E-02
      7.697  0.2887E-02  0.9704E-02
      7.751  0.2298E-02  0.9828E-02
      7.805  0.1351E-02  0.9901E-02
      7.858  0.9858E-03  0.9954E-02
      7.912  0.7325E-03  0.9993E-02
      7.965  0.5077E-03  0.1002E-01
      8.019  0.4487E-03  0.1004E-01
      8.073  0.2842E-03  0.1006E-01
      8.126  0.5268E-03  0.1009E-01
      8.180  0.6293E-03  0.1012E-01
      8.234  0.3968E-03  0.1014E-01
      8.287  0.1830E-03  0.1015E-01
      8.341  0.2254E-03  0.1017E-01
      8.394  0.1503E-03  0.1017E-01
      8.448  0.3046E-04  0.1017E-01
      8.502  0.4513E-05  0.1017E-01
      8.555  0.3238E-05  0.1018E-01
      8.609  0.2519E-04  0.1018E-01
      8.663  0.1698E-03  0.1019E-01
      8.716  0.7225E-03  0.1022E-01
      8.770  0.1842E-02  0.1032E-01
      8.824  0.2699E-02  0.1047E-01
      8.877  0.2832E-02  0.1062E-01
      8.931  0.2105E-02  0.1073E-01
      8.984  0.2139E-02  0.1085E-01
      9.038  0.2938E-02  0.1101E-01
      9.092  0.2830E-02  0.1116E-01
      9.145  0.2437E-02  0.1129E-01
      9.199  0.2485E-02  0.1142E-01
      9.253  0.2370E-02  0.1155E-01
      9.306  0.1705E-02  0.1164E-01
      9.360  0.9993E-03  0.1169E-01
      9.413  0.4580E-03  0.1172E-01
      9.467  0.1004E-03  0.1172E-01
      9.521  0.1408E-04  0.1172E-01
      9.574  0.7013E-05  0.1173E-01
      9.628  0.4516E-04  0.1173E-01
      9.682  0.2903E-03  0.1174E-01
      9.735  0.9978E-03  0.1180E-01
      9.789  0.1459E-02  0.1188E-01
      9.842  0.1617E-02  0.1196E-01
      9.896  0.9484E-03  0.1201E-01
      9.950  0.2747E-03  0.1203E-01
     10.003  0.3941E-03  0.1205E-01
     10.057  0.7842E-03  0.1209E-01
     10.111  0.9654E-03  0.1214E-01
     10.164  0.1072E-02  0.1220E-01
     10.218  0.9156E-03  0.1225E-01
     10.271  0.1158E-02  0.1231E-01
     10.325  0.1340E-02  0.1238E-01
     10.379  0.9419E-03  0.1243E-01
     10.432  0.6735E-03  0.1247E-01
     10.486  0.9914E-03  0.1252E-01
     10.540  0.1532E-02  0.1261E-01
     10.593  0.1229E-02  0.1267E-01
     10.647  0.4355E-03  0.1270E-01
     10.701  0.7831E-04  0.1270E-01
     10.754  0.1879E-04  0.1270E-01
     10.808  0.7545E-04  0.1270E-01
     10.861  0.3669E-03  0.1272E-01
     10.915  0.6155E-03  0.1276E-01
     10.969  0.2735E-03  0.1277E-01
     11.022  0.4862E-04  0.1277E-01
     11.076  0.9603E-05  0.1278E-01
     11.130  0.3094E-04  0.1278E-01
     11.183  0.1792E-03  0.1279E-01
     11.237  0.4807E-03  0.1281E-01
     11.290  0.6485E-03  0.1285E-01
     11.344  0.7916E-03  0.1289E-01
     11.398  0.9021E-03  0.1294E-01
     11.451  0.6711E-03  0.1297E-01
     11.505  0.3624E-03  0.1299E-01
     11.559  0.1029E-03  0.1300E-01
     11.612  0.1472E-04  0.1300E-01
     11.666  0.1710E-05  0.1300E-01
     11.719  0.0000E+00  0.1300E-01
     11.773  0.0000E+00  0.1300E-01
     11.827  0.0000E+00  0.1300E-01
     11.880  0.0000E+00  0.1300E-01
     11.934  0.0000E+00  0.1300E-01
     11.988  0.0000E+00  0.1300E-01
     12.041  0.0000E+00  0.1300E-01
     12.095  0.0000E+00  0.1300E-01
     12.148  0.0000E+00  0.1300E-01
     12.202  0.0000E+00  0.1300E-01
