   32   3210000    1
  0.1648726E+02  0.8080400E-09  0.8080400E-09  0.8080400E-09  0.1000000E-14
   300.000000000000     
  CAR 
 Al                                      
     96      8     65
 
  0.0000000E+00  0.0000000E+00  0.0000000E+00  0.1250000E+00
    1       -3.155240   1.000000
    2       -1.037370   1.000000
    3       -0.963764   1.000000
    4       -0.949706   1.000000
    5       -0.891118   1.000000
    6       -0.864935   1.000000
    7       -0.752357   1.000000
    8        1.129016   1.000000
    9        1.143830   1.000000
   10        1.186461   1.000000
   11        1.236586   1.000000
   12        1.258661   1.000000
   13        1.271977   1.000000
   14        1.332783   1.000000
   15        1.340537   1.000000
   16        1.359740   1.000000
   17        1.444475   1.000000
   18        1.476239   1.000000
   19        1.572647   1.000000
   20        3.351570   1.000000
   21        3.382009   1.000000
   22        3.389780   1.000000
   23        3.418052   1.000000
   24        3.603778   1.000000
   25        3.639249   1.000000
   26        3.662819   1.000000
   27        3.710869   1.000000
   28        5.051543   1.000000
   29        5.064489   1.000000
   30        5.085726   1.000000
   31        6.335781   1.000000
   32        6.344562   1.000000
   33        6.351944   1.000000
   34        6.947515   1.000000
   35        7.026470   1.000000
   36        7.032110   1.000000
   37        7.056768   1.000000
   38        7.095539   1.000000
   39        7.133536   1.000000
   40        7.148778   1.000000
   41        7.188833   1.000000
   42        7.210064   1.000000
   43        7.277118   1.000000
   44        7.297614   0.999999
   45        7.429017   0.999874
   46        7.970156   0.000006
   47        8.095556   0.000000
   48        8.135168   0.000000
   49        8.148913   0.000000
   50        8.203331   0.000000
   51        8.329680   0.000000
   52        8.965338   0.000000
   53        8.988857   0.000000
   54        9.018459   0.000000
   55        9.038743   0.000000
   56        9.070945   0.000000
   57        9.077434   0.000000
   58        9.106513   0.000000
   59        9.165920   0.000000
   60        9.221889   0.000000
   61        9.240734   0.000000
   62        9.263579   0.000000
   63        9.320662   0.000000
   64        9.340035   0.000000
   65        9.368942   0.000000
 
  0.5000000E+00  0.0000000E+00  0.0000000E+00  0.1250000E+00
    1       -2.639378   1.000000
    2       -2.541536   1.000000
    3       -0.510029   1.000000
    4       -0.444499   1.000000
    5       -0.406724   1.000000
    6       -0.383046   1.000000
    7       -0.350787   1.000000
    8       -0.285753   1.000000
    9       -0.250316   1.000000
   10       -0.184587   1.000000
   11        1.678672   1.000000
   12        1.689956   1.000000
   13        1.734278   1.000000
   14        1.798449   1.000000
   15        1.834963   1.000000
   16        1.870952   1.000000
   17        1.898993   1.000000
   18        1.998654   1.000000
   19        2.067473   1.000000
   20        2.092915   1.000000
   21        3.948351   1.000000
   22        3.975967   1.000000
   23        3.997142   1.000000
   24        4.014319   1.000000
   25        4.032073   1.000000
   26        4.045166   1.000000
   27        4.086886   1.000000
   28        4.108246   1.000000
   29        5.514296   1.000000
   30        5.556850   1.000000
   31        5.615696   1.000000
   32        5.647872   1.000000
   33        6.043231   1.000000
   34        6.095925   1.000000
   35        6.145615   1.000000
   36        6.180744   1.000000
   37        6.206940   1.000000
   38        6.218357   1.000000
   39        6.291881   1.000000
   40        6.375906   1.000000
   41        6.824989   1.000000
   42        6.870119   1.000000
   43        6.941592   1.000000
   44        6.990658   1.000000
   45        7.541724   0.990225
   46        7.570636   0.970679
   47        7.633880   0.741402
   48        7.663873   0.473303
   49        7.716646   0.104494
   50        7.792711   0.006117
   51        7.847736   0.000732
   52        7.875347   0.000252
   53        9.004043   0.000000
   54        9.023780   0.000000
   55        9.074311   0.000000
   56        9.100016   0.000000
   57        9.115816   0.000000
   58        9.178695   0.000000
   59        9.208511   0.000000
   60        9.269823   0.000000
   61        9.702753   0.000000
   62        9.754406   0.000000
   63        9.808041   0.000000
   64        9.854256   0.000000
   65       10.533204   0.000000
 
  0.0000000E+00  0.5000000E+00  0.0000000E+00  0.1250000E+00
    1       -2.631046   1.000000
    2       -2.548405   1.000000
    3       -0.564725   1.000000
    4       -0.472676   1.000000
    5       -0.427748   1.000000
    6       -0.357853   1.000000
    7       -0.326968   1.000000
    8       -0.280751   1.000000
    9       -0.271172   1.000000
   10       -0.098181   1.000000
   11        1.675476   1.000000
   12        1.729825   1.000000
   13        1.796842   1.000000
   14        1.798503   1.000000
   15        1.814504   1.000000
   16        1.854575   1.000000
   17        1.891478   1.000000
   18        1.955956   1.000000
   19        2.014806   1.000000
   20        2.105559   1.000000
   21        3.863792   1.000000
   22        3.930335   1.000000
   23        3.962409   1.000000
   24        3.991770   1.000000
   25        4.038166   1.000000
   26        4.064543   1.000000
   27        4.152343   1.000000
   28        4.208310   1.000000
   29        5.533204   1.000000
   30        5.553528   1.000000
   31        5.631183   1.000000
   32        5.648249   1.000000
   33        6.082745   1.000000
   34        6.101124   1.000000
   35        6.163722   1.000000
   36        6.179719   1.000000
   37        6.197050   1.000000
   38        6.227527   1.000000
   39        6.279741   1.000000
   40        6.327281   1.000000
   41        6.855865   1.000000
   42        6.863716   1.000000
   43        6.930790   1.000000
   44        6.987095   1.000000
   45        7.499670   0.998063
   46        7.562746   0.978222
   47        7.674238   0.375699
   48        7.686049   0.275939
   49        7.709680   0.132528
   50        7.712920   0.118771
   51        7.767429   0.016101
   52        7.974319   0.000005
   53        8.977970   0.000000
   54        8.999075   0.000000
   55        9.044949   0.000000
   56        9.089419   0.000000
   57        9.155995   0.000000
   58        9.193082   0.000000
   59        9.264991   0.000000
   60        9.281183   0.000000
   61        9.734069   0.000000
   62        9.737920   0.000000
   63        9.817171   0.000000
   64        9.830411   0.000000
   65       10.559655   0.000000
 
  0.5000000E+00  0.5000000E+00  0.0000000E+00  0.1250000E+00
    1       -2.099310   1.000000
    2       -2.056764   1.000000
    3       -2.040163   1.000000
    4       -1.912064   1.000000
    5        0.000458   1.000000
    6        0.038472   1.000000
    7        0.140764   1.000000
    8        0.197465   1.000000
    9        0.237588   1.000000
   10        0.259230   1.000000
   11        0.300897   1.000000
   12        0.487733   1.000000
   13        2.220282   1.000000
   14        2.306428   1.000000
   15        2.338111   1.000000
   16        2.378856   1.000000
   17        2.420628   1.000000
   18        2.422612   1.000000
   19        2.549927   1.000000
   20        2.580300   1.000000
   21        4.269375   1.000000
   22        4.288912   1.000000
   23        4.302112   1.000000
   24        4.370427   1.000000
   25        4.412546   1.000000
   26        4.469073   1.000000
   27        4.473144   1.000000
   28        4.543721   1.000000
   29        4.630130   1.000000
   30        4.642693   1.000000
   31        4.715616   1.000000
   32        4.759079   1.000000
   33        4.772169   1.000000
   34        4.798685   1.000000
   35        4.836494   1.000000
   36        4.948387   1.000000
   37        6.041658   1.000000
   38        6.101362   1.000000
   39        6.118571   1.000000
   40        6.257122   1.000000
   41        6.608004   1.000000
   42        6.613961   1.000000
   43        6.657022   1.000000
   44        6.693962   1.000000
   45        7.521006   0.995590
   46        7.556281   0.982959
   47        7.570157   0.971202
   48        7.666572   0.447373
   49        8.741120   0.000000
   50        8.751128   0.000000
   51        8.772599   0.000000
   52        8.813377   0.000000
   53        8.833430   0.000000
   54        8.854290   0.000000
   55        8.874249   0.000000
   56        8.985856   0.000000
   57       10.009243   0.000000
   58       10.143352   0.000000
   59       10.212834   0.000000
   60       10.238729   0.000000
   61       10.294103   0.000000
   62       10.326047   0.000000
   63       10.498968   0.000000
   64       10.527526   0.000000
   65       10.900871   0.000000
 
  0.0000000E+00  0.0000000E+00  0.5000000E+00  0.1250000E+00
    1       -2.632289   1.000000
    2       -2.550380   1.000000
    3       -0.498099   1.000000
    4       -0.429125   1.000000
    5       -0.401260   1.000000
    6       -0.349878   1.000000
    7       -0.331755   1.000000
    8       -0.305015   1.000000
    9       -0.281853   1.000000
   10       -0.226665   1.000000
   11        1.703360   1.000000
   12        1.723241   1.000000
   13        1.752171   1.000000
   14        1.804187   1.000000
   15        1.875644   1.000000
   16        1.903936   1.000000
   17        1.925255   1.000000
   18        1.955698   1.000000
   19        1.971126   1.000000
   20        2.033591   1.000000
   21        3.943554   1.000000
   22        3.974133   1.000000
   23        4.010076   1.000000
   24        4.021850   1.000000
   25        4.057167   1.000000
   26        4.059721   1.000000
   27        4.072134   1.000000
   28        4.111649   1.000000
   29        5.536339   1.000000
   30        5.545232   1.000000
   31        5.622921   1.000000
   32        5.641287   1.000000
   33        6.086297   1.000000
   34        6.123714   1.000000
   35        6.142587   1.000000
   36        6.155521   1.000000
   37        6.203201   1.000000
   38        6.230738   1.000000
   39        6.281169   1.000000
   40        6.305001   1.000000
   41        6.842035   1.000000
   42        6.892911   1.000000
   43        6.945166   1.000000
   44        6.956306   1.000000
   45        7.526224   0.994609
   46        7.594617   0.929041
   47        7.637383   0.714588
   48        7.702558   0.167522
   49        7.723625   0.081795
   50        7.729084   0.067272
   51        7.800696   0.004499
   52        7.867734   0.000338
   53        9.001038   0.000000
   54        9.026561   0.000000
   55        9.048795   0.000000
   56        9.131321   0.000000
   57        9.168163   0.000000
   58        9.181635   0.000000
   59        9.214108   0.000000
   60        9.222476   0.000000
   61        9.733678   0.000000
   62        9.792334   0.000000
   63        9.826385   0.000000
   64        9.841540   0.000000
   65       10.590133   0.000000
 
  0.5000000E+00  0.0000000E+00  0.5000000E+00  0.1250000E+00
    1       -2.145331   1.000000
    2       -2.069005   1.000000
    3       -1.996791   1.000000
    4       -1.888094   1.000000
    5       -0.030040   1.000000
    6        0.076453   1.000000
    7        0.143962   1.000000
    8        0.178678   1.000000
    9        0.213563   1.000000
   10        0.298616   1.000000
   11        0.322936   1.000000
   12        0.433378   1.000000
   13        2.191979   1.000000
   14        2.284415   1.000000
   15        2.338855   1.000000
   16        2.365438   1.000000
   17        2.443271   1.000000
   18        2.454289   1.000000
   19        2.549437   1.000000
   20        2.619268   1.000000
   21        4.248735   1.000000
   22        4.284509   1.000000
   23        4.333304   1.000000
   24        4.358084   1.000000
   25        4.426316   1.000000
   26        4.435108   1.000000
   27        4.501817   1.000000
   28        4.591749   1.000000
   29        4.612131   1.000000
   30        4.646351   1.000000
   31        4.690212   1.000000
   32        4.729638   1.000000
   33        4.782041   1.000000
   34        4.840652   1.000000
   35        4.866981   1.000000
   36        4.900040   1.000000
   37        5.996676   1.000000
   38        6.065278   1.000000
   39        6.145848   1.000000
   40        6.271007   1.000000
   41        6.573992   1.000000
   42        6.596494   1.000000
   43        6.672601   1.000000
   44        6.715412   1.000000
   45        7.507904   0.997339
   46        7.567484   0.973957
   47        7.586735   0.946695
   48        7.672517   0.391436
   49        8.692778   0.000000
   50        8.753804   0.000000
   51        8.794636   0.000000
   52        8.834824   0.000000
   53        8.838343   0.000000
   54        8.865087   0.000000
   55        8.907297   0.000000
   56        8.931424   0.000000
   57       10.022780   0.000000
   58       10.134757   0.000000
   59       10.163764   0.000000
   60       10.274835   0.000000
   61       10.336871   0.000000
   62       10.371755   0.000000
   63       10.470968   0.000000
   64       10.548010   0.000000
   65       10.883028   0.000000
 
  0.0000000E+00  0.5000000E+00  0.5000000E+00  0.1250000E+00
    1       -2.107109   1.000000
    2       -2.036436   1.000000
    3       -2.028867   1.000000
    4       -1.941730   1.000000
    5        0.049092   1.000000
    6        0.072189   1.000000
    7        0.156142   1.000000
    8        0.200208   1.000000
    9        0.225152   1.000000
   10        0.266519   1.000000
   11        0.316634   1.000000
   12        0.362610   1.000000
   13        2.242316   1.000000
   14        2.263974   1.000000
   15        2.281131   1.000000
   16        2.396875   1.000000
   17        2.423888   1.000000
   18        2.506405   1.000000
   19        2.560687   1.000000
   20        2.573792   1.000000
   21        4.294504   1.000000
   22        4.320339   1.000000
   23        4.342080   1.000000
   24        4.355641   1.000000
   25        4.404405   1.000000
   26        4.431146   1.000000
   27        4.437739   1.000000
   28        4.499936   1.000000
   29        4.665316   1.000000
   30        4.699626   1.000000
   31        4.710650   1.000000
   32        4.731433   1.000000
   33        4.783826   1.000000
   34        4.828076   1.000000
   35        4.847089   1.000000
   36        4.865683   1.000000
   37        6.028910   1.000000
   38        6.100139   1.000000
   39        6.107314   1.000000
   40        6.222067   1.000000
   41        6.634763   1.000000
   42        6.643052   1.000000
   43        6.647143   1.000000
   44        6.698324   1.000000
   45        7.514281   0.996597
   46        7.587502   0.945178
   47        7.593844   0.930987
   48        7.657429   0.535528
   49        8.750563   0.000000
   50        8.781751   0.000000
   51        8.793031   0.000000
   52        8.801920   0.000000
   53        8.846537   0.000000
   54        8.858676   0.000000
   55        8.873778   0.000000
   56        8.900823   0.000000
   57       10.051626   0.000000
   58       10.091204   0.000000
   59       10.107595   0.000000
   60       10.276957   0.000000
   61       10.282796   0.000000
   62       10.429864   0.000000
   63       10.493417   0.000000
   64       10.529853   0.000000
   65       10.862089   0.000000
 
  0.5000000E+00  0.5000000E+00  0.5000000E+00  0.1250000E+00
    1       -1.612463   1.000000
    2       -1.568361   1.000000
    3       -1.561472   1.000000
    4       -1.467241   1.000000
    5       -1.462029   1.000000
    6       -1.392903   1.000000
    7       -1.382830   1.000000
    8       -1.262217   1.000000
    9        2.583362   1.000000
   10        2.664432   1.000000
   11        2.696324   1.000000
   12        2.722464   1.000000
   13        2.755428   1.000000
   14        2.762392   1.000000
   15        2.799722   1.000000
   16        2.821841   1.000000
   17        2.848960   1.000000
   18        2.860910   1.000000
   19        2.896621   1.000000
   20        2.923234   1.000000
   21        2.936656   1.000000
   22        2.969926   1.000000
   23        2.993203   1.000000
   24        3.037010   1.000000
   25        3.079899   1.000000
   26        3.133895   1.000000
   27        3.141401   1.000000
   28        3.160620   1.000000
   29        3.176845   1.000000
   30        3.200573   1.000000
   31        3.295628   1.000000
   32        3.343484   1.000000
   33        6.863575   1.000000
   34        6.935736   1.000000
   35        6.978305   1.000000
   36        7.012865   1.000000
   37        7.061820   1.000000
   38        7.064833   1.000000
   39        7.111022   1.000000
   40        7.127876   1.000000
   41        7.155655   1.000000
   42        7.165727   1.000000
   43        7.196847   1.000000
   44        7.245404   1.000000
   45        7.267337   1.000000
   46        7.283771   1.000000
   47        7.304729   0.999999
   48        7.321116   0.999998
   49        7.353509   0.999993
   50        7.377821   0.999983
   51        7.392325   0.999969
   52        7.450480   0.999711
   53        7.498273   0.998165
   54        7.498509   0.998148
   55        7.564662   0.976587
   56        7.629794   0.770534
   57       11.200836   0.000000
   58       11.244096   0.000000
   59       11.271577   0.000000
   60       11.327858   0.000000
   61       11.347335   0.000000
   62       11.358563   0.000000
   63       11.398082   0.000000
   64       11.414512   0.000000
   65       11.470824   0.000000
