unknown system                          
   3.61000000000000     
     0.500000    0.500000    0.000000
     0.000000    0.500000    0.500000
     0.500000    0.000000    0.500000
   Cu
     1
Direct
  0.000000  0.000000  0.000000
 
   24   24   24
  466.74      440.23      367.49      267.31      164.98      83.365      33.965      13.390      7.7301      5.1415    
  3.8291      3.2886      3.1542      3.2886      3.8291      5.1415      7.7301      13.390      33.965      83.365    
  164.98      267.31      367.49      440.23      440.23      390.63      304.40      203.97      113.84      51.253    
  19.680      9.4730      6.1194      4.2961      3.4551      3.1614      3.1614      3.4550      4.2961      6.1195    
  9.4734      19.681      51.255      113.84      203.97      304.40      390.62      440.22      367.49      304.40    
  218.53      132.40      65.512      26.655      11.473      7.0871      4.8047      3.6546      3.1827      3.0657    
  3.1827      3.6545      4.8046      7.0873      11.474      26.658      65.515      132.40      218.52      304.39    
  367.48      390.62      267.31      203.97      132.40      71.035      31.281      13.328      7.8672      5.2687    
  3.8608      3.2161      2.9920      2.9920      3.2160      3.8607      5.2687      7.8678      13.330      31.285    
  71.037      132.40      203.96      267.29      304.39      304.40      164.98      113.84      65.512      31.281    
  14.102      8.3027      5.5945      4.0330      3.2541      2.9359      2.8571      2.9359      3.2541      4.0329    
  5.5945      8.3035      14.104      31.285      65.512      113.84      164.97      203.96      218.52      203.97    
  83.365      51.253      26.655      13.328      8.3027      5.7118      4.1312      3.2849      2.8978      2.7623    
  2.7623      2.8978      3.2850      4.1311      5.7118      8.3036      13.330      26.657      51.252      83.360    
  113.84      132.40      132.40      113.84      33.965      19.680      11.473      7.8672      5.5945      4.1312    
  3.2968      2.8787      2.7038      2.6590      2.7038      2.8788      3.2969      4.1311      5.5946      7.8679    
  11.474      19.681      33.964      51.252      65.512      71.037      65.515      51.255      13.390      9.4730    
  7.0871      5.2687      4.0330      3.2849      2.8787      2.6839      2.6096      2.6095      2.6839      2.8788    
  3.2850      4.0329      5.2687      7.0874      9.4736      13.390      19.681      26.657      31.285      31.285    
  26.658      19.681      7.7301      6.1194      4.8047      3.8608      3.2541      2.8978      2.7038      2.6096    
  2.5814      2.6095      2.7038      2.8978      3.2541      3.8608      4.8047      6.1196      7.7304      9.4736    
  11.474      13.330      14.104      13.330      11.474      9.4734      5.1415      4.2961      3.6546      3.2161    
  2.9359      2.7623      2.6590      2.6095      2.6095      2.6590      2.7623      2.9359      3.2160      3.6546    
  4.2961      5.1416      6.1196      7.0874      7.8679      8.3036      8.3035      7.8678      7.0873      6.1195    
  3.8291      3.4551      3.1827      2.9920      2.8571      2.7623      2.7038      2.6839      2.7038      2.7623    
  2.8571      2.9920      3.1827      3.4551      3.8291      4.2961      4.8047      5.2687      5.5946      5.7118    
  5.5945      5.2687      4.8046      4.2961      3.2886      3.1614      3.0657      2.9920      2.9359      2.8978    
  2.8788      2.8788      2.8978      2.9359      2.9920      3.0657      3.1613      3.2886      3.4551      3.6546    
  3.8608      4.0329      4.1311      4.1311      4.0329      3.8607      3.6545      3.4550      3.1542      3.1614    
  3.1827      3.2160      3.2541      3.2850      3.2969      3.2850      3.2541      3.2160      3.1827      3.1613    
  3.1542      3.1613      3.1827      3.2160      3.2541      3.2850      3.2969      3.2850      3.2541      3.2160    
  3.1827      3.1614      3.2886      3.4550      3.6545      3.8607      4.0329      4.1311      4.1311      4.0329    
  3.8608      3.6546      3.4551      3.2886      3.1613      3.0657      2.9920      2.9359      2.8978      2.8788    
  2.8788      2.8978      2.9359      2.9920      3.0657      3.1614      3.8291      4.2961      4.8046      5.2687    
  5.5945      5.7118      5.5946      5.2687      4.8047      4.2961      3.8291      3.4551      3.1827      2.9920    
  2.8571      2.7623      2.7038      2.6839      2.7038      2.7623      2.8571      2.9920      3.1827      3.4551    
  5.1415      6.1195      7.0873      7.8678      8.3035      8.3036      7.8679      7.0874      6.1196      5.1416    
  4.2961      3.6546      3.2160      2.9359      2.7623      2.6590      2.6095      2.6095      2.6590      2.7623    
  2.9359      3.2161      3.6546      4.2961      7.7301      9.4734      11.474      13.330      14.104      13.330    
  11.474      9.4736      7.7304      6.1196      4.8047      3.8608      3.2541      2.8978      2.7038      2.6095    
  2.5814      2.6096      2.7038      2.8978      3.2541      3.8608      4.8047      6.1194      13.390      19.681    
  26.658      31.285      31.285      26.657      19.681      13.390      9.4736      7.0874      5.2687      4.0329    
  3.2850      2.8788      2.6839      2.6095      2.6096      2.6839      2.8787      3.2849      4.0330      5.2687    
  7.0871      9.4730      33.965      51.255      65.515      71.037      65.512      51.252      33.964      19.681    
  11.474      7.8679      5.5946      4.1311      3.2969      2.8788      2.7038      2.6590      2.7038      2.8787    
  3.2968      4.1312      5.5945      7.8672      11.473      19.680      83.365      113.84      132.40      132.40    
  113.84      83.360      51.252      26.657      13.330      8.3036      5.7118      4.1311      3.2850      2.8978    
  2.7623      2.7623      2.8978      3.2849      4.1312      5.7118      8.3027      13.328      26.655      51.253    
  164.98      203.97      218.52      203.96      164.97      113.84      65.512      31.285      14.104      8.3035    
  5.5945      4.0329      3.2541      2.9359      2.8571      2.9359      3.2541      4.0330      5.5945      8.3027    
  14.102      31.281      65.512      113.84      267.31      304.40      304.39      267.29      203.96      132.40    
  71.037      31.285      13.330      7.8678      5.2687      3.8607      3.2160      2.9920      2.9920      3.2161    
  3.8608      5.2687      7.8672      13.328      31.281      71.035      132.40      203.97      367.49      390.62    
  367.48      304.39      218.52      132.40      65.515      26.658      11.474      7.0873      4.8046      3.6545    
  3.1827      3.0657      3.1827      3.6546      4.8047      7.0871      11.473      26.655      65.512      132.40    
  218.53      304.40      440.23      440.22      390.62      304.40      203.97      113.84      51.255      19.681    
  9.4734      6.1195      4.2961      3.4550      3.1614      3.1614      3.4551      4.2961      6.1194      9.4730    
  19.680      51.253      113.84      203.97      304.40      390.63      440.23      390.62      304.39      203.96    
  113.84      51.256      19.684      9.4747      6.1196      4.2961      3.4550      3.1613      3.1613      3.4551    
  4.2961      6.1197      9.4738      19.680      51.251      113.83      203.96      304.40      390.64      440.24    
  390.62      324.28      233.72      142.43      70.944      28.847      12.039      7.2944      4.9156      3.7148    
  3.2212      3.0987      3.2212      3.7148      4.9158      7.2945      12.038      28.843      70.939      142.43    
  233.73      324.30      390.64      414.92      304.39      233.72      153.20      83.192      36.774      14.992    
  8.3483      5.5327      4.0008      3.2975      3.0526      3.0525      3.2974      4.0008      5.5331      8.3482    
  14.990      36.769      83.188      153.20      233.73      304.40      345.59      345.59      203.96      142.43    
  83.192      39.911      17.039      9.0951      6.0328      4.2650      3.3809      3.0191      2.9295      3.0191    
  3.3808      4.2651      6.0333      9.0950      17.037      39.907      83.190      142.43      203.97      250.39    
  267.65      250.39      113.84      70.944      36.774      17.039      9.3802      6.3127      4.4522      3.4539    
  2.9973      2.8382      2.8382      2.9974      3.4539      4.4525      6.3133      9.3801      17.037      36.771    
  70.943      113.84      153.64      177.60      177.59      153.64      51.256      28.847      14.992      9.0951    
  6.3127      4.5198      3.4968      2.9860      2.7749      2.7218      2.7750      2.9860      3.4969      4.5202    
  6.3133      9.0952      14.991      28.845      51.255      77.089      97.824      105.76      97.823      77.089    
  19.684      12.039      8.3483      6.0328      4.4522      3.4968      2.9826      2.7420      2.6540      2.6541    
  2.7421      2.9826      3.4969      4.4526      6.0333      8.3485      12.039      19.682      31.342      43.561    
  51.413      51.414      43.562      31.343      9.4747      7.2944      5.5327      4.2650      3.4539      2.9860    
  2.7420      2.6314      2.6004      2.6315      2.7420      2.9859      3.4539      4.2653      5.5331      7.2946    
  9.4741      12.683      17.118      21.190      22.852      21.191      17.119      12.685      6.1196      4.9156    
  4.0008      3.3809      2.9973      2.7749      2.6540      2.6004      2.6005      2.6541      2.7749      2.9973    
  3.3808      4.0009      4.9158      6.1197      7.5051      8.8722      10.106      10.933      10.933      10.107    
  8.8733      7.5056      4.2961      3.7148      3.2975      3.0191      2.8382      2.7218      2.6541      2.6315    
  2.6541      2.7218      2.8381      3.0191      3.2974      3.7148      4.2961      5.0199      5.8028      6.5133    
  7.0109      7.1899      7.0112      6.5137      5.8030      5.0200      3.4550      3.2212      3.0526      2.9295    
  2.8382      2.7750      2.7421      2.7420      2.7749      2.8381      2.9295      3.0526      3.2212      3.4551    
  3.7634      4.1280      4.4973      4.8006      4.9718      4.9718      4.8007      4.4973      4.1279      3.7634    
  3.1613      3.0987      3.0525      3.0191      2.9974      2.9860      2.9826      2.9859      2.9973      3.0191    
  3.0526      3.0988      3.1614      3.2469      3.3584      3.4874      3.6120      3.7032      3.7367      3.7031    
  3.6120      3.4874      3.3584      3.2469      3.1613      3.2212      3.2974      3.3808      3.4539      3.4969    
  3.4969      3.4539      3.3808      3.2974      3.2212      3.1614      3.1187      3.0904      3.0745      3.0696    
  3.0720      3.0757      3.0757      3.0719      3.0696      3.0745      3.0904      3.1187      3.4551      3.7148    
  4.0008      4.2651      4.4525      4.5202      4.4526      4.2653      4.0009      3.7148      3.4551      3.2469    
  3.0904      2.9724      2.8813      2.8135      2.7711      2.7567      2.7712      2.8136      2.8813      2.9724    
  3.0904      3.2469      4.2961      4.9158      5.5331      6.0333      6.3133      6.3133      6.0333      5.5331    
  4.9158      4.2961      3.7634      3.3584      3.0745      2.8813      2.7492      2.6627      2.6187      2.6187    
  2.6627      2.7493      2.8814      3.0746      3.3584      3.7634      6.1197      7.2945      8.3482      9.0950    
  9.3801      9.0952      8.3485      7.2946      6.1197      5.0199      4.1280      3.4874      3.0696      2.8135    
  2.6627      2.5819      2.5561      2.5818      2.6627      2.8136      3.0697      3.4875      4.1280      5.0200    
  9.4738      12.038      14.990      17.037      17.037      14.991      12.039      9.4741      7.5051      5.8028    
  4.4973      3.6120      3.0720      2.7711      2.6187      2.5561      2.5561      2.6187      2.7711      3.0720    
  3.6120      4.4974      5.8031      7.5054      19.680      28.843      36.769      39.907      36.771      28.845    
  19.682      12.683      8.8722      6.5133      4.8006      3.7032      3.0757      2.7567      2.6187      2.5818    
  2.6187      2.7567      3.0757      3.7032      4.8006      6.5137      8.8729      12.683      51.251      70.939    
  83.188      83.190      70.943      51.255      31.342      17.118      10.106      7.0109      4.9718      3.7367    
  3.0757      2.7712      2.6627      2.6627      2.7711      3.0757      3.7367      4.9718      7.0113      10.107    
  17.118      31.340      113.83      142.43      153.20      142.43      113.84      77.089      43.561      21.190    
  10.933      7.1899      4.9718      3.7031      3.0719      2.8136      2.7493      2.8136      3.0720      3.7032    
  4.9718      7.1901      10.934      21.191      43.561      77.085      203.96      233.73      233.73      203.97    
  153.64      97.824      51.413      22.852      10.933      7.0112      4.8007      3.6120      3.0696      2.8813    
  2.8814      3.0697      3.6120      4.8006      7.0113      10.934      22.853      51.414      97.822      153.64    
  304.40      324.30      304.40      250.39      177.60      105.76      51.414      21.191      10.107      6.5137    
  4.4973      3.4874      3.0745      2.9724      3.0746      3.4875      4.4974      6.5137      10.107      21.191    
  51.414      105.76      177.60      250.39      390.64      390.64      345.59      267.65      177.59      97.823    
  43.562      17.119      8.8733      5.8030      4.1279      3.3584      3.0904      3.0904      3.3584      4.1280    
  5.8031      8.8729      17.118      43.561      97.822      177.60      267.65      345.60      440.24      414.92    
  345.59      250.39      153.64      77.089      31.343      12.685      7.5056      5.0200      3.7634      3.2469    
  3.1187      3.2469      3.7634      5.0200      7.5054      12.683      31.340      77.085      153.64      250.39    
  345.60      414.93      367.50      304.40      218.52      132.39      65.506      26.654      11.474      7.0883    
  4.8052      3.6547      3.1827      3.0657      3.1826      3.6546      4.8046      7.0875      11.474      26.658    
  65.512      132.39      218.52      304.39      367.49      390.64      304.40      233.72      153.19      83.182    
  36.766      14.990      8.3496      5.5339      4.0011      3.2975      3.0526      3.0525      3.2974      4.0009    
  5.5331      8.3486      14.991      36.770      83.186      153.20      233.72      304.40      345.60      345.60    
  218.52      153.19      89.949      43.295      18.241      9.3989      6.1930      4.3495      3.4264      3.0487    
  2.9551      3.0486      3.4264      4.3491      6.1917      9.3973      18.241      43.297      89.953      153.20    
  218.52      267.66      285.89      267.66      132.39      83.182      43.295      19.574      10.064      6.6532    
  4.6343      3.5488      3.0524      2.8796      2.8796      3.0525      3.5487      4.6336      6.6515      10.062    
  19.573      43.297      83.186      132.40      177.60      204.67      204.67      177.60      65.506      36.766    
  18.241      10.064      6.8182      4.7943      3.6373      3.0603      2.8229      2.7635      2.8229      3.0603    
  3.6373      4.7937      6.8165      10.061      18.241      36.769      65.512      97.829      123.41      133.14    
  123.41      97.822      26.654      14.990      9.3989      6.6532      4.7943      3.6696      3.0664      2.7871    
  2.6869      2.6868      2.7871      3.0665      3.6697      4.7937      6.6515      9.3968      14.990      26.657    
  43.564      60.699      71.518      71.516      60.693      43.558      11.474      8.3496      6.1930      4.6343    
  3.6373      3.0664      2.7747      2.6475      2.6132      2.6475      2.7748      3.0665      3.6373      4.6337    
  6.1917      8.3482      11.474      17.119      24.732      31.468      34.163      31.464      24.727      17.116    
  7.0883      5.5339      4.3495      3.5488      3.0603      2.7871      2.6475      2.5895      2.5895      2.6475    
  2.7871      3.0602      3.5488      4.3492      5.5331      7.0874      8.8727      10.974      13.358      15.028    
  15.027      13.356      10.973      8.8725      4.8052      4.0011      3.4264      3.0524      2.8229      2.6869    
  2.6132      2.5895      2.6132      2.6868      2.8229      3.0524      3.4264      4.0009      4.8047      5.8029    
  6.8795      7.8550      8.5379      8.7867      8.5372      7.8542      6.8794      5.8034      3.6547      3.2975    
  3.0487      2.8796      2.7635      2.6868      2.6475      2.6475      2.6868      2.7635      2.8796      3.0486    
  3.2974      3.6546      4.1280      4.6835      5.2419      5.6980      5.9547      5.9546      5.6978      5.2419    
  4.6837      4.1282      3.1827      3.0526      2.9551      2.8796      2.8229      2.7871      2.7748      2.7871    
  2.8229      2.8796      2.9551      3.0525      3.1827      3.3584      3.5810      3.8296      4.0619      4.2279    
  4.2881      4.2278      4.0619      3.8297      3.5810      3.3584      3.0657      3.0525      3.0486      3.0525    
  3.0603      3.0665      3.0665      3.0602      3.0524      3.0486      3.0525      3.0657      3.0905      3.1299    
  3.1845      3.2477      3.3051      3.3394      3.3394      3.3050      3.2477      3.1845      3.1299      3.0904    
  3.1826      3.2974      3.4264      3.5487      3.6373      3.6697      3.6373      3.5488      3.4264      3.2974    
  3.1827      3.0905      3.0183      2.9608      2.9158      2.8841      2.8659      2.8602      2.8659      2.8841    
  2.9158      2.9608      3.0182      3.0904      3.6546      4.0009      4.3491      4.6336      4.7937      4.7937    
  4.6337      4.3492      4.0009      3.6546      3.3584      3.1299      2.9608      2.8338      2.7373      2.6695    
  2.6341      2.6341      2.6696      2.7374      2.8338      2.9608      3.1298      3.3583      4.8046      5.5331    
  6.1917      6.6515      6.8165      6.6515      6.1917      5.5331      4.8047      4.1280      3.5810      3.1845    
  2.9158      2.7373      2.6197      2.5501      2.5267      2.5502      2.6198      2.7373      2.9159      3.1845    
  3.5810      4.1279      7.0875      8.3486      9.3973      10.062      10.061      9.3968      8.3482      7.0874    
  5.8029      4.6835      3.8296      3.2477      2.8841      2.6695      2.5501      2.4961      2.4961      2.5502    
  2.6696      2.8841      3.2478      3.8297      4.6835      5.8029      11.474      14.991      18.241      19.573    
  18.241      14.990      11.474      8.8727      6.8795      5.2419      4.0619      3.3051      2.8659      2.6341    
  2.5267      2.4961      2.5267      2.6341      2.8659      3.3051      4.0620      5.2419      6.8794      8.8728    
  26.658      36.770      43.297      43.297      36.769      26.657      17.119      10.974      7.8550      5.6980    
  4.2279      3.3394      2.8602      2.6341      2.5502      2.5502      2.6341      2.8601      3.3394      4.2279    
  5.6980      7.8548      10.974      17.119      65.512      83.186      89.953      83.186      65.512      43.564    
  24.732      13.358      8.5379      5.9547      4.2881      3.3394      2.8659      2.6696      2.6198      2.6696    
  2.8659      3.3394      4.2881      5.9548      8.5379      13.358      24.732      43.564      132.39      153.20    
  153.20      132.40      97.829      60.699      31.468      15.028      8.7867      5.9546      4.2278      3.3050    
  2.8841      2.7374      2.7373      2.8841      3.3051      4.2279      5.9548      8.7871      15.028      31.468    
  60.698      97.826      218.52      233.72      218.52      177.60      123.41      71.518      34.163      15.027    
  8.5372      5.6978      4.0619      3.2477      2.9158      2.8338      2.9159      3.2478      4.0620      5.6980    
  8.5379      15.028      34.165      71.518      123.41      177.60      304.39      304.40      267.66      204.67    
  133.14      71.516      31.464      13.356      7.8542      5.2419      3.8297      3.1845      2.9608      2.9608    
  3.1845      3.8297      5.2419      7.8548      13.358      31.468      71.518      133.14      204.66      267.64    
  367.49      345.60      285.89      204.67      123.41      60.693      24.727      10.973      6.8794      4.6837    
  3.5810      3.1299      3.0182      3.1298      3.5810      4.6835      6.8794      10.974      24.732      60.698    
  123.41      204.66      285.88      345.59      390.64      345.60      267.66      177.60      97.822      43.558    
  17.116      8.8725      5.8034      4.1282      3.3584      3.0904      3.0904      3.3583      4.1279      5.8029    
  8.8728      17.119      43.564      97.826      177.60      267.64      345.59      390.63      267.30      203.97    
  132.41      71.040      31.283      13.327      7.8654      5.2679      3.8608      3.2162      2.9920      2.9920    
  3.2160      3.8607      5.2687      7.8677      13.330      31.284      71.037      132.40      203.96      267.30    
  304.39      304.39      203.97      142.44      83.194      39.907      17.034      9.0920      6.0320      4.2653    
  3.3811      3.0192      2.9295      3.0191      3.3808      4.2651      6.0333      9.0952      17.038      39.908    
  83.190      142.43      203.96      250.39      267.64      250.39      132.41      83.194      43.298      19.570    
  10.058      6.6499      4.6337      3.5491      3.0526      2.8796      2.8796      3.0524      3.5487      4.6336    
  6.6515      10.062      19.575      43.300      83.188      132.39      177.59      204.66      204.66      177.61    
  71.040      39.907      19.570      10.448      6.9956      4.8924      3.6885      3.0872      2.8399      2.7782    
  2.8399      3.0869      3.6879      4.8923      6.9975      10.452      19.574      39.907      71.033      105.76    
  133.13      143.53      133.14      105.77      31.283      17.034      10.058      6.9956      4.9855      3.7677    
  3.1139      2.8119      2.7043      2.7043      2.8119      3.1136      3.7671      4.9854      6.9975      10.062    
  17.037      31.282      51.413      71.513      84.111      84.115      71.522      51.420      13.327      9.0920    
  6.6499      4.8924      3.7677      3.1240      2.7974      2.6575      2.6206      2.6575      2.7974      3.1238    
  3.7671      4.8923      6.6515      9.0951      13.329      21.190      31.465      40.361      43.890      40.365    
  31.469      21.191      7.8654      6.0320      4.6337      3.6885      3.1139      2.7974      2.6412      2.5793    
  2.5793      2.6413      2.7974      3.1137      3.6880      4.6337      6.0333      7.8676      10.106      13.356    
  17.146      19.766      19.767      17.148      13.357      10.104      5.2679      4.2653      3.5491      3.0872    
  2.8119      2.6575      2.5793      2.5552      2.5792      2.6575      2.8119      3.0870      3.5488      4.2653    
  5.2687      6.5133      7.8545      9.0860      10.068      10.467      10.068      9.0860      7.8536      6.5120    
  3.8608      3.3811      3.0526      2.8399      2.7043      2.6206      2.5793      2.5792      2.6205      2.7043    
  2.8399      3.0525      3.3809      3.8608      4.4973      5.2418      5.9890      6.6000      6.9447      6.9447    
  6.5998      5.9884      5.2411      4.4969      3.2162      3.0192      2.8796      2.7782      2.7043      2.6575    
  2.6413      2.6575      2.7043      2.7782      2.8796      3.0191      3.2160      3.4874      3.8296      4.2070    
  4.5557      4.8030      4.8925      4.8028      4.5554      4.2068      3.8295      3.4874      2.9920      2.9295    
  2.8796      2.8399      2.8119      2.7974      2.7974      2.8119      2.8399      2.8796      2.9295      2.9920    
  3.0745      3.1845      3.3196      3.4622      3.5834      3.6533      3.6532      3.5834      3.4622      3.3195    
  3.1845      3.0746      2.9920      3.0191      3.0524      3.0869      3.1136      3.1238      3.1137      3.0870    
  3.0525      3.0191      2.9920      2.9724      2.9608      2.9580      2.9647      2.9779      2.9910      2.9965    
  2.9911      2.9780      2.9647      2.9580      2.9608      2.9725      3.2160      3.3808      3.5487      3.6879    
  3.7671      3.7671      3.6880      3.5488      3.3809      3.2160      3.0745      2.9608      2.8688      2.7921    
  2.7300      2.6857      2.6628      2.6628      2.6857      2.7300      2.7921      2.8688      2.9608      3.0745    
  3.8607      4.2651      4.6336      4.8923      4.9854      4.8923      4.6337      4.2653      3.8608      3.4874    
  3.1845      2.9580      2.7921      2.6681      2.5768      2.5189      2.4988      2.5188      2.5767      2.6681    
  2.7921      2.9581      3.1846      3.4874      5.2687      6.0333      6.6515      6.9975      6.9975      6.6515    
  6.0333      5.2687      4.4973      3.8296      3.3196      2.9647      2.7300      2.5768      2.4806      2.4328    
  2.4328      2.4806      2.5768      2.7300      2.9647      3.3196      3.8296      4.4973      7.8677      9.0952    
  10.062      10.452      10.062      9.0951      7.8676      6.5133      5.2418      4.2070      3.4622      2.9779    
  2.6857      2.5189      2.4328      2.4060      2.4328      2.5189      2.6857      2.9780      3.4622      4.2070    
  5.2418      6.5134      13.330      17.038      19.575      19.574      17.037      13.329      10.106      7.8545    
  5.9890      4.5557      3.5834      2.9910      2.6628      2.4988      2.4328      2.4328      2.4988      2.6628    
  2.9910      3.5834      4.5556      5.9890      7.8546      10.106      31.284      39.908      43.300      39.907    
  31.282      21.190      13.356      9.0860      6.6000      4.8030      3.6533      2.9965      2.6628      2.5188    
  2.4806      2.5189      2.6628      2.9964      3.6532      4.8029      6.5998      9.0858      13.357      21.191    
  71.037      83.190      83.188      71.033      51.413      31.465      17.146      10.068      6.9447      4.8925    
  3.6532      2.9911      2.6857      2.5767      2.5768      2.6857      2.9910      3.6532      4.8924      6.9442    
  10.067      17.146      31.466      51.417      132.40      142.43      132.39      105.76      71.513      40.361    
  19.766      10.467      6.9447      4.8028      3.5834      2.9780      2.7300      2.6681      2.7300      2.9780    
  3.5834      4.8029      6.9442      10.466      19.764      40.361      71.517      105.77      203.96      203.96    
  177.59      133.13      84.111      43.890      19.767      10.068      6.5998      4.5554      3.4622      2.9647    
  2.7921      2.7921      2.9647      3.4622      4.5556      6.5998      10.067      19.764      43.887      84.113    
  133.14      177.60      267.30      250.39      204.66      143.53      84.115      40.365      17.148      9.0860    
  5.9884      4.2068      3.3195      2.9580      2.8688      2.9581      3.3196      4.2070      5.9890      9.0858    
  17.146      40.361      84.113      143.53      204.67      250.39      304.39      267.64      204.66      133.14    
  71.522      31.469      13.357      7.8536      5.2411      3.8295      3.1845      2.9608      2.9608      3.1846    
  3.8296      5.2418      7.8546      13.357      31.466      71.517      133.14      204.67      267.65      304.39    
  304.39      250.39      177.61      105.77      51.420      21.191      10.104      6.5120      4.4969      3.4874    
  3.0746      2.9725      3.0745      3.4874      4.4973      6.5134      10.106      21.191      51.417      105.77    
  177.60      250.39      304.39      324.28      164.96      113.83      65.512      31.289      14.109      8.3060    
  5.5945      4.0321      3.2537      2.9358      2.8571      2.9359      3.2541      4.0329      5.5945      8.3032    
  14.103      31.283      65.512      113.84      164.98      203.97      218.52      203.95      113.83      70.941    
  36.776      17.044      9.3837      6.3133      4.4513      3.4531      2.9971      2.8382      2.8382      2.9974    
  3.4539      4.4525      6.3133      9.3801      17.037      36.770      70.943      113.84      153.65      177.60    
  177.59      153.63      65.512      36.776      18.248      10.065      6.8165      4.7920      3.6361      3.0599    
  2.8229      2.7635      2.8229      3.0603      3.6373      4.7937      6.8164      10.061      18.241      36.771    
  65.515      97.829      123.41      133.13      123.40      97.820      31.289      17.044      10.065      6.9976    
  4.9836      3.7655      3.1131      2.8118      2.7043      2.7043      2.8119      3.1137      3.7671      4.9854    
  6.9974      10.062      17.038      31.285      51.418      71.516      84.107      84.104      71.510      51.416    
  14.109      9.3837      6.8165      4.9836      3.8124      3.1440      2.8056      2.6609      2.6229      2.6610    
  2.8057      3.1446      3.8140      4.9855      6.8165      9.3804      14.104      22.854      34.163      43.884    
  47.724      43.883      34.163      22.858      8.3060      6.3133      4.7920      3.7655      3.1440      2.8037    
  2.6376      2.5728      2.5729      2.6376      2.8037      3.1446      3.7672      4.7938      6.3133      8.3035    
  10.934      15.028      19.763      22.999      23.000      19.764      15.031      10.937      5.5945      4.4513    