unknown system                          
   3.61000000000000     
     0.500000    0.500000    0.000000
     0.000000    0.500000    0.500000
     0.500000    0.000000    0.500000
   Cu
     1
Direct
  0.000000  0.000000  0.000000
 
   24   24   24
 0.46673809193E+03 0.44022610523E+03 0.36749135122E+03 0.26730629174E+03 0.16497689435E+03
 0.83365222088E+02 0.33965088684E+02 0.13390096472E+02 0.77300743469E+01 0.51415115236E+01
 0.38290998993E+01 0.32885782865E+01 0.31542060656E+01 0.32885782865E+01 0.38290998993E+01
 0.51415115236E+01 0.77300743469E+01 0.13390096472E+02 0.33965088684E+02 0.83365222088E+02
 0.16497689435E+03 0.26730629174E+03 0.36749135122E+03 0.44022610523E+03 0.44022610523E+03
 0.39063045891E+03 0.30440121621E+03 0.20396824272E+03 0.11384132620E+03 0.51253125649E+02
 0.19679878967E+02 0.94729790666E+01 0.61194242044E+01 0.42961001090E+01 0.34550697156E+01
 0.31613866461E+01 0.31613521486E+01 0.34550178783E+01 0.42960735029E+01 0.61194519051E+01
 0.94733899117E+01 0.19681185694E+02 0.51255046663E+02 0.11384209805E+03 0.20396573672E+03
 0.30439531105E+03 0.39062407396E+03 0.44022333577E+03 0.36749135122E+03 0.30440121621E+03
 0.21852986923E+03 0.13240019382E+03 0.65511792134E+02 0.26655126237E+02 0.11472550850E+02
 0.70871023051E+01 0.48046952270E+01 0.36546151109E+01 0.31827158910E+01 0.30657242333E+01
 0.31826643721E+01 0.36545361834E+01 0.48045994853E+01 0.70872920722E+01 0.11473853240E+02
 0.26658003170E+02 0.65514668054E+02 0.13239939734E+03 0.21852272900E+03 0.30438987669E+03
 0.36748259989E+03 0.39062407396E+03 0.26730629174E+03 0.20396824272E+03 0.13240019382E+03
 0.71034857320E+02 0.31281455632E+02 0.13328063683E+02 0.78672272492E+01 0.52687231742E+01
 0.38608435658E+01 0.32160659381E+01 0.29919959360E+01 0.29919536220E+01 0.32159795428E+01
 0.38607276078E+01 0.52686500947E+01 0.78677967706E+01 0.13330271121E+02 0.31285071873E+02
 0.71036874829E+02 0.13239633052E+03 0.20395753499E+03 0.26729405094E+03 0.30438987669E+03
 0.30439531105E+03 0.16497689435E+03 0.11384132620E+03 0.65511792134E+02 0.31281455632E+02
 0.14101710068E+02 0.83026884454E+01 0.55945265497E+01 0.40329653686E+01 0.32541032467E+01
 0.29359272966E+01 0.28571197864E+01 0.29358688208E+01 0.32540857342E+01 0.40329224971E+01
 0.55945326504E+01 0.83035356494E+01 0.14104218458E+02 0.31284517446E+02 0.65511842128E+02
 0.11383535398E+03 0.16496656532E+03 0.20395753499E+03 0.21852272900E+03 0.20396573672E+03
 0.83365222088E+02 0.51253125649E+02 0.26655126237E+02 0.13328063683E+02 0.83026884454E+01
 0.57117841734E+01 0.41311903014E+01 0.32848791942E+01 0.28977713843E+01 0.27623002923E+01
 0.27623023622E+01 0.28978354200E+01 0.32849791374E+01 0.41311455459E+01 0.57117912026E+01
 0.83035679016E+01 0.13330162443E+02 0.26656904966E+02 0.51251793310E+02 0.83359742842E+02
 0.11383535398E+03 0.13239633052E+03 0.13239939734E+03 0.11384209805E+03 0.33965088684E+02
 0.19679878967E+02 0.11472550850E+02 0.78672272492E+01 0.55945265497E+01 0.41311903014E+01
 0.32968196009E+01 0.28787072382E+01 0.27038455554E+01 0.26589717499E+01 0.27038423898E+01
 0.28787899578E+01 0.32969144890E+01 0.41311470789E+01 0.55945580438E+01 0.78678929290E+01
 0.11473843452E+02 0.19680583025E+02 0.33963727772E+02 0.51251793310E+02 0.65511842128E+02
 0.71036874829E+02 0.65514668054E+02 0.51255046663E+02 0.13390096472E+02 0.94729790666E+01
 0.70871023051E+01 0.52687231742E+01 0.40329653686E+01 0.32848791942E+01 0.28787072382E+01
 0.26839279069E+01 0.26095622010E+01 0.26094972702E+01 0.26838556299E+01 0.28787792407E+01
 0.32849871524E+01 0.40329378984E+01 0.52686996882E+01 0.70874295311E+01 0.94736039069E+01
 0.13390367789E+02 0.19680583025E+02 0.26656904966E+02 0.31284517446E+02 0.31285071873E+02
 0.26658003170E+02 0.19681185694E+02 0.77300743469E+01 0.61194242044E+01 0.48046952270E+01
 0.38608435658E+01 0.32541032467E+01 0.28977713843E+01 0.27038455554E+01 0.26095622010E+01
 0.25814347880E+01 0.26095224830E+01 0.27038468230E+01 0.28978282318E+01 0.32541182144E+01
 0.38607703454E+01 0.48046572498E+01 0.61195720922E+01 0.77303723026E+01 0.94736039069E+01
 0.11473843452E+02 0.13330162443E+02 0.14104218458E+02 0.13330271121E+02 0.11473853240E+02
 0.94733899117E+01 0.51415115236E+01 0.42961001090E+01 0.36546151109E+01 0.32160659381E+01
 0.29359272966E+01 0.27623002923E+01 0.26589717499E+01 0.26094972702E+01 0.26095224830E+01
 0.26590126738E+01 0.27623031007E+01 0.29358946247E+01 0.32160318718E+01 0.36545963877E+01
 0.42961101630E+01 0.51415726380E+01 0.61195720922E+01 0.70874295311E+01 0.78678929290E+01
 0.83035679016E+01 0.83035356494E+01 0.78677967706E+01 0.70872920721E+01 0.61194519051E+01
 0.38290998993E+01 0.34550697156E+01 0.31827158910E+01 0.29919959360E+01 0.28571197864E+01
 0.27623023622E+01 0.27038423898E+01 0.26838556299E+01 0.27038468230E+01 0.27623031007E+01
 0.28571113996E+01 0.29919812350E+01 0.31826983422E+01 0.34550534398E+01 0.38291041099E+01
 0.42961101630E+01 0.48046572498E+01 0.52686996882E+01 0.55945580438E+01 0.57117912026E+01
 0.55945326504E+01 0.52686500947E+01 0.48045994853E+01 0.42960735029E+01 0.32885782865E+01
 0.31613866461E+01 0.30657242333E+01 0.29919536220E+01 0.29358688208E+01 0.28978354200E+01
 0.28787899578E+01 0.28787792407E+01 0.28978282318E+01 0.29358946247E+01 0.29919812350E+01
 0.30657055435E+01 0.31613365295E+01 0.32885564242E+01 0.34550534398E+01 0.36545963877E+01
 0.38607703454E+01 0.40329378984E+01 0.41311470789E+01 0.41311455459E+01 0.40329224971E+01
 0.38607276078E+01 0.36545361834E+01 0.34550178783E+01 0.31542060656E+01 0.31613521486E+01
 0.31826643721E+01 0.32159795428E+01 0.32540857342E+01 0.32849791374E+01 0.32969144890E+01
 0.32849871524E+01 0.32541182144E+01 0.32160318718E+01 0.31826983422E+01 0.31613365295E+01
 0.31541643956E+01 0.31613365295E+01 0.31826983422E+01 0.32160318718E+01 0.32541182144E+01
 0.32849871524E+01 0.32969144890E+01 0.32849791374E+01 0.32540857342E+01 0.32159795428E+01
 0.31826643721E+01 0.31613521486E+01 0.32885782865E+01 0.34550178783E+01 0.36545361834E+01
 0.38607276078E+01 0.40329224971E+01 0.41311455459E+01 0.41311470789E+01 0.40329378984E+01
 0.38607703454E+01 0.36545963877E+01 0.34550534398E+01 0.32885564242E+01 0.31613365295E+01
 0.30657055435E+01 0.29919812350E+01 0.29358946247E+01 0.28978282318E+01 0.28787792407E+01
 0.28787899578E+01 0.28978354200E+01 0.29358688208E+01 0.29919536220E+01 0.30657242333E+01
 0.31613866461E+01 0.38290998993E+01 0.42960735029E+01 0.48045994853E+01 0.52686500947E+01
 0.55945326504E+01 0.57117912026E+01 0.55945580438E+01 0.52686996882E+01 0.48046572498E+01
 0.42961101630E+01 0.38291041099E+01 0.34550534398E+01 0.31826983422E+01 0.29919812350E+01
 0.28571113996E+01 0.27623031007E+01 0.27038468230E+01 0.26838556299E+01 0.27038423898E+01
 0.27623023622E+01 0.28571197864E+01 0.29919959360E+01 0.31827158910E+01 0.34550697156E+01
 0.51415115236E+01 0.61194519051E+01 0.70872920722E+01 0.78677967706E+01 0.83035356494E+01
 0.83035679016E+01 0.78678929290E+01 0.70874295311E+01 0.61195720922E+01 0.51415726380E+01
 0.42961101630E+01 0.36545963877E+01 0.32160318718E+01 0.29358946247E+01 0.27623031007E+01
 0.26590126738E+01 0.26095224830E+01 0.26094972702E+01 0.26589717499E+01 0.27623002923E+01
 0.29359272966E+01 0.32160659381E+01 0.36546151109E+01 0.42961001090E+01 0.77300743469E+01
 0.94733899117E+01 0.11473853240E+02 0.13330271121E+02 0.14104218458E+02 0.13330162443E+02
 0.11473843452E+02 0.94736039069E+01 0.77303723026E+01 0.61195720922E+01 0.48046572498E+01
 0.38607703454E+01 0.32541182144E+01 0.28978282318E+01 0.27038468230E+01 0.26095224830E+01
 0.25814347880E+01 0.26095622010E+01 0.27038455554E+01 0.28977713843E+01 0.32541032467E+01
 0.38608435658E+01 0.48046952270E+01 0.61194242044E+01 0.13390096472E+02 0.19681185694E+02
 0.26658003170E+02 0.31285071873E+02 0.31284517446E+02 0.26656904966E+02 0.19680583025E+02
 0.13390367789E+02 0.94736039069E+01 0.70874295311E+01 0.52686996882E+01 0.40329378984E+01
 0.32849871524E+01 0.28787792407E+01 0.26838556299E+01 0.26094972702E+01 0.26095622010E+01
 0.26839279069E+01 0.28787072382E+01 0.32848791942E+01 0.40329653686E+01 0.52687231742E+01
 0.70871023051E+01 0.94729790666E+01 0.33965088684E+02 0.51255046663E+02 0.65514668054E+02
 0.71036874829E+02 0.65511842128E+02 0.51251793310E+02 0.33963727772E+02 0.19680583025E+02
 0.11473843452E+02 0.78678929290E+01 0.55945580438E+01 0.41311470789E+01 0.32969144890E+01
 0.28787899578E+01 0.27038423898E+01 0.26589717499E+01 0.27038455554E+01 0.28787072382E+01
 0.32968196009E+01 0.41311903014E+01 0.55945265497E+01 0.78672272492E+01 0.11472550850E+02
 0.19679878967E+02 0.83365222088E+02 0.11384209805E+03 0.13239939734E+03 0.13239633052E+03
 0.11383535398E+03 0.83359742842E+02 0.51251793310E+02 0.26656904966E+02 0.13330162443E+02
 0.83035679016E+01 0.57117912026E+01 0.41311455459E+01 0.32849791374E+01 0.28978354200E+01
 0.27623023622E+01 0.27623002923E+01 0.28977713843E+01 0.32848791942E+01 0.41311903014E+01
 0.57117841734E+01 0.83026884454E+01 0.13328063683E+02 0.26655126237E+02 0.51253125649E+02
 0.16497689435E+03 0.20396573672E+03 0.21852272900E+03 0.20395753499E+03 0.16496656532E+03
 0.11383535398E+03 0.65511842128E+02 0.31284517446E+02 0.14104218458E+02 0.83035356494E+01
 0.55945326504E+01 0.40329224971E+01 0.32540857342E+01 0.29358688208E+01 0.28571197864E+01
 0.29359272966E+01 0.32541032467E+01 0.40329653686E+01 0.55945265497E+01 0.83026884454E+01
 0.14101710068E+02 0.31281455632E+02 0.65511792134E+02 0.11384132620E+03 0.26730629174E+03
 0.30439531105E+03 0.30438987669E+03 0.26729405094E+03 0.20395753499E+03 0.13239633052E+03
 0.71036874829E+02 0.31285071873E+02 0.13330271121E+02 0.78677967706E+01 0.52686500947E+01
 0.38607276078E+01 0.32159795428E+01 0.29919536220E+01 0.29919959360E+01 0.32160659381E+01
 0.38608435658E+01 0.52687231742E+01 0.78672272492E+01 0.13328063683E+02 0.31281455632E+02
 0.71034857320E+02 0.13240019382E+03 0.20396824272E+03 0.36749135122E+03 0.39062407396E+03
 0.36748259989E+03 0.30438987669E+03 0.21852272900E+03 0.13239939734E+03 0.65514668054E+02
 0.26658003170E+02 0.11473853240E+02 0.70872920721E+01 0.48045994853E+01 0.36545361834E+01
 0.31826643721E+01 0.30657242333E+01 0.31827158910E+01 0.36546151109E+01 0.48046952270E+01
 0.70871023051E+01 0.11472550850E+02 0.26655126237E+02 0.65511792134E+02 0.13240019382E+03
 0.21852986923E+03 0.30440121621E+03 0.44022610523E+03 0.44022333577E+03 0.39062407396E+03
 0.30439531105E+03 0.20396573672E+03 0.11384209805E+03 0.51255046663E+02 0.19681185694E+02
 0.94733899117E+01 0.61194519051E+01 0.42960735029E+01 0.34550178783E+01 0.31613521486E+01
 0.31613866461E+01 0.34550697156E+01 0.42961001090E+01 0.61194242044E+01 0.94729790666E+01
 0.19679878967E+02 0.51253125649E+02 0.11384132620E+03 0.20396824272E+03 0.30440121621E+03
 0.39063045891E+03 0.44023329785E+03 0.39062335985E+03 0.30438628759E+03 0.20395623469E+03
 0.11383787667E+03 0.51255916691E+02 0.19683518285E+02 0.94746521067E+01 0.61196493408E+01
 0.42960623372E+01 0.34550406640E+01 0.31612952642E+01 0.31613380563E+01 0.34550934832E+01
 0.42961215606E+01 0.61196952418E+01 0.94738476257E+01 0.19680384244E+02 0.51250778973E+02
 0.11383499935E+03 0.20396144288E+03 0.30440066336E+03 0.39063964394E+03 0.44024048682E+03
 0.39062335985E+03 0.32428002233E+03 0.23371845945E+03 0.14242621483E+03 0.70944441092E+02
 0.28847360005E+02 0.12039384572E+02 0.72944140351E+01 0.49155993292E+01 0.37147536725E+01
 0.32212270149E+01 0.30986660676E+01 0.32211857263E+01 0.37147674776E+01 0.49158410009E+01
 0.72944518263E+01 0.12037641394E+02 0.28842628641E+02 0.70938962321E+02 0.14242609265E+03
 0.23372855333E+03 0.32429735078E+03 0.39063705651E+03 0.41492456030E+03 0.30438628759E+03
 0.23371845945E+03 0.15320070379E+03 0.83192249951E+02 0.36773699309E+02 0.14992139226E+02
 0.83483411100E+01 0.55327234796E+01 0.40007564863E+01 0.32974660516E+01 0.30525597642E+01
 0.30525380038E+01 0.32973941967E+01 0.40008126259E+01 0.55330963870E+01 0.83482212288E+01
 0.14989707004E+02 0.36768634414E+02 0.83188290315E+02 0.15320373949E+03 0.23373026890E+03
 0.30440056045E+03 0.34559433361E+03 0.34558789410E+03 0.20395623469E+03 0.14242621483E+03
 0.83192249951E+02 0.39910871393E+02 0.17038981168E+02 0.90951456022E+01 0.60327858586E+01
 0.42650345335E+01 0.33808729613E+01 0.30190812405E+01 0.29295273760E+01 0.30191174514E+01
 0.33808054096E+01 0.42651317268E+01 0.60332543800E+01 0.90949662830E+01 0.17036552825E+02
 0.39906750964E+02 0.83190307113E+02 0.14243031867E+03 0.20396533542E+03 0.25039330851E+03
 0.26764529705E+03 0.25038563633E+03 0.11383787667E+03 0.70944441092E+02 0.36773699309E+02
 0.17038981168E+02 0.93802266921E+01 0.63126901561E+01 0.44522168144E+01 0.34538973444E+01
 0.29973326403E+01 0.28381755160E+01 0.28382335859E+01 0.29973652280E+01 0.34538673361E+01
 0.44524769852E+01 0.63132593016E+01 0.93800936733E+01 0.17037110536E+02 0.36770936821E+02
 0.70943474985E+02 0.11384043147E+03 0.15364341966E+03 0.17759629607E+03 0.17759416694E+03
 0.15363909895E+03 0.51255916691E+02 0.28847360005E+02 0.14992139226E+02 0.90951456022E+01
 0.63126901561E+01 0.45198422856E+01 0.34968062454E+01 0.29859626943E+01 0.27749234536E+01
 0.27218017180E+01 0.27749981035E+01 0.29859877223E+01 0.34968782142E+01 0.45202401471E+01
 0.63132832534E+01 0.90951526997E+01 0.14990925032E+02 0.28845445526E+02 0.51254662371E+02
 0.77088686622E+02 0.97823563851E+02 0.10575778761E+03 0.97822904484E+02 0.77088584854E+02
 0.19683518285E+02 0.12039384572E+02 0.83483411100E+01 0.60327858586E+01 0.44522168144E+01
 0.34968062454E+01 0.29825874654E+01 0.27419835749E+01 0.26540323147E+01 0.26540972222E+01
 0.27420752385E+01 0.29825992480E+01 0.34968863715E+01 0.44525838695E+01 0.60332973588E+01
 0.83484526698E+01 0.12038609730E+02 0.19681913665E+02 0.31341561513E+02 0.43561028180E+02
 0.51413331158E+02 0.51413860976E+02 0.43562463119E+02 0.31343424398E+02 0.94746521067E+01
 0.72944140351E+01 0.55327234796E+01 0.42650345335E+01 0.34538973444E+01 0.29859626943E+01
 0.27419835749E+01 0.26313785171E+01 0.26004344181E+01 0.26314732854E+01 0.27420327028E+01
 0.29859105965E+01 0.34538921553E+01 0.42652628238E+01 0.55331151128E+01 0.72945711119E+01
 0.94740745161E+01 0.12683301124E+02 0.17117595974E+02 0.21190130624E+02 0.22852295848E+02
 0.21191476080E+02 0.17119492670E+02 0.12684783681E+02 0.61196493408E+01 0.49155993292E+01
 0.40007564863E+01 0.33808729613E+01 0.29973326403E+01 0.27749234536E+01 0.26540323147E+01
 0.26004344181E+01 0.26004506279E+01 0.26540558381E+01 0.27749021476E+01 0.29972619841E+01
 0.33808430130E+01 0.40008847915E+01 0.49158299860E+01 0.61196722594E+01 0.75050761325E+01
 0.88722389859E+01 0.10105582337E+02 0.10932665330E+02 0.10933132852E+02 0.10106676027E+02
 0.88732915321E+01 0.75055940320E+01 0.42960623372E+01 0.37147536725E+01 0.32974660516E+01
 0.30190812405E+01 0.28381755160E+01 0.27218017180E+01 0.26540972222E+01 0.26314732854E+01
 0.26540558381E+01 0.27217581537E+01 0.28381485698E+01 0.30190561864E+01 0.32974424124E+01
 0.37147693676E+01 0.42961130557E+01 0.50199263820E+01 0.58027804971E+01 0.65133118387E+01
 0.70108898878E+01 0.71898644847E+01 0.70112329768E+01 0.65137422087E+01 0.58030363734E+01
 0.50199621999E+01 0.34550406640E+01 0.32212270149E+01 0.30525597642E+01 0.29295273760E+01
 0.28382335859E+01 0.27749981035E+01 0.27420752385E+01 0.27420327028E+01 0.27749021476E+01
 0.28381485698E+01 0.29294874285E+01 0.30525572688E+01 0.32212417087E+01 0.34550694851E+01
 0.37634380973E+01 0.41279534888E+01 0.44972911330E+01 0.48005964486E+01 0.49718042353E+01
 0.49718424886E+01 0.48006695666E+01 0.44973267684E+01 0.41279331198E+01 0.37633969741E+01
 0.31612952642E+01 0.30986660676E+01 0.30525380038E+01 0.30191174514E+01 0.29973652280E+01
 0.29859877223E+01 0.29825992480E+01 0.29859105965E+01 0.29972619841E+01 0.30190561864E+01
 0.30525572688E+01 0.30987541352E+01 0.31613934692E+01 0.32469151866E+01 0.33583666765E+01
 0.34874139888E+01 0.36120370671E+01 0.37032023672E+01 0.37366698058E+01 0.37031265285E+01
 0.36119675870E+01 0.34874031520E+01 0.33583712908E+01 0.32468695109E+01 0.31613380563E+01
 0.32211857263E+01 0.32973941967E+01 0.33808054096E+01 0.34538673361E+01 0.34968782142E+01
 0.34968863715E+01 0.34538921553E+01 0.33808430130E+01 0.32974424124E+01 0.32212417087E+01
 0.31613934692E+01 0.31186909507E+01 0.30904096281E+01 0.30745253035E+01 0.30695722234E+01
 0.30719783756E+01 0.30756752747E+01 0.30756545463E+01 0.30719404316E+01 0.30695541560E+01
 0.30745261091E+01 0.30904003913E+01 0.31186533517E+01 0.34550934832E+01 0.37147674776E+01
 0.40008126259E+01 0.42651317268E+01 0.44524769852E+01 0.45202401471E+01 0.44525838695E+01
 0.42652628238E+01 0.40008847915E+01 0.37147693676E+01 0.34550694851E+01 0.32469151866E+01
 0.30904096281E+01 0.29724252070E+01 0.28813139279E+01 0.28135351187E+01 0.27711130925E+01
 0.27566775729E+01 0.27711674657E+01 0.28135921841E+01 0.28813298009E+01 0.29724065164E+01
 0.30903899172E+01 0.32469217441E+01 0.42961215606E+01 0.49158410009E+01 0.55330963870E+01
 0.60332543800E+01 0.63132593016E+01 0.63132832534E+01 0.60332973588E+01 0.55331151128E+01
 0.49158299860E+01 0.42961130557E+01 0.37634380973E+01 0.33583666765E+01 0.30745253035E+01
 0.28813139279E+01 0.27492321690E+01 0.26627258294E+01 0.26187180889E+01 0.26187025265E+01
 0.26627108884E+01 0.27492644668E+01 0.28813814439E+01 0.30745710107E+01 0.33583698668E+01
 0.37634292111E+01 0.61196952418E+01 0.72944518263E+01 0.83482212288E+01 0.90949662830E+01
 0.93800936733E+01 0.90951526997E+01 0.83484526698E+01 0.72945711119E+01 0.61196722594E+01
 0.50199263820E+01 0.41279534888E+01 0.34874139888E+01 0.30695722234E+01 0.28135351187E+01
 0.26627258294E+01 0.25819318517E+01 0.25561138750E+01 0.25818300716E+01 0.26626653193E+01
 0.28135894337E+01 0.30696622710E+01 0.34874646936E+01 0.41279924387E+01 0.50199920709E+01
 0.94738476257E+01 0.12037641394E+02 0.14989707004E+02 0.17036552825E+02 0.17037110536E+02
 0.14990925032E+02 0.12038609730E+02 0.94740745161E+01 0.75050761325E+01 0.58027804971E+01
 0.44972911330E+01 0.36120370671E+01 0.30719783756E+01 0.27711130925E+01 0.26187180889E+01
 0.25561138750E+01 0.25560840063E+01 0.26186825055E+01 0.27711279967E+01 0.30719940497E+01
 0.36120173793E+01 0.44973612375E+01 0.58030695382E+01 0.75053614545E+01 0.19680384244E+02
 0.28842628641E+02 0.36768634414E+02 0.39906750964E+02 0.36770936821E+02 0.28845445526E+02
 0.19681913665E+02 0.12683301124E+02 0.88722389859E+01 0.65133118387E+01 0.48005964486E+01
 0.37032023672E+01 0.30756752747E+01 0.27566775729E+01 0.26187025265E+01 0.25818300716E+01
 0.26186825055E+01 0.27566982183E+01 0.30757026033E+01 0.37031563247E+01 0.48006178905E+01
 0.65137134740E+01 0.88729085558E+01 0.12683353715E+02 0.51250778973E+02 0.70938962321E+02
 0.83188290315E+02 0.83190307113E+02 0.70943474985E+02 0.51254662371E+02 0.31341561513E+02
 0.17117595974E+02 0.10105582337E+02 0.70108898878E+01 0.49718042353E+01 0.37366698058E+01
 0.30756545463E+01 0.27711674657E+01 0.26627108884E+01 0.26626653193E+01 0.27711279967E+01
 0.30757026033E+01 0.37366832218E+01 0.49718059473E+01 0.70112978177E+01 0.10106586016E+02
 0.17118256812E+02 0.31340208818E+02 0.11383499935E+03 0.14242609265E+03 0.15320373949E+03
 0.14243031867E+03 0.11384043147E+03 0.77088686622E+02 0.43561028180E+02 0.21190130624E+02
 0.10932665330E+02 0.71898644847E+01 0.49718424886E+01 0.37031265285E+01 0.30719404316E+01
 0.28135921841E+01 0.27492644668E+01 0.28135894337E+01 0.30719940497E+01 0.37031563247E+01
 0.49718059473E+01 0.71901338734E+01 0.10933690442E+02 0.21191370790E+02 0.43560697711E+02
 0.77085340078E+02 0.20396144288E+03 0.23372855333E+03 0.23373026890E+03 0.20396533542E+03
 0.15364341966E+03 0.97823563851E+02 0.51413331158E+02 0.22852295848E+02 0.10933132852E+02
 0.70112329768E+01 0.48006695666E+01 0.36119675870E+01 0.30695541560E+01 0.28813298009E+01
 0.28813814439E+01 0.30696622710E+01 0.36120173793E+01 0.48006178905E+01 0.70112978177E+01
 0.10933690442E+02 0.22853293217E+02 0.51413811148E+02 0.97822194804E+02 0.15363994327E+03
 0.30440066336E+03 0.32429735078E+03 0.30440056045E+03 0.25039330851E+03 0.17759629607E+03
 0.10575778761E+03 0.51413860976E+02 0.21191476080E+02 0.10106676027E+02 0.65137422087E+01
 0.44973267684E+01 0.34874031520E+01 0.30745261091E+01 0.29724065164E+01 0.30745710107E+01
 0.34874646936E+01 0.44973612375E+01 0.65137134740E+01 0.10106586016E+02 0.21191370790E+02
 0.51413811148E+02 0.10575783567E+03 0.17759642994E+03 0.25039346718E+03 0.39063964394E+03
 0.39063705651E+03 0.34559433361E+03 0.26764529705E+03 0.17759416694E+03 0.97822904484E+02
 0.43562463119E+02 0.17119492670E+02 0.88732915321E+01 0.58030363734E+01 0.41279331198E+01
 0.33583712908E+01 0.30904003913E+01 0.30903899172E+01 0.33583698668E+01 0.41279924387E+01
 0.58030695382E+01 0.88729085558E+01 0.17118256812E+02 0.43560697711E+02 0.97822194804E+02
 0.17759642994E+03 0.26765071507E+03 0.34560026182E+03 0.44024048682E+03 0.41492456030E+03
 0.34558789410E+03 0.25038563633E+03 0.15363909895E+03 0.77088584854E+02 0.31343424398E+02
 0.12684783681E+02 0.75055940320E+01 0.50199621999E+01 0.37633969741E+01 0.32468695109E+01
 0.31186533517E+01 0.32469217441E+01 0.37634292111E+01 0.50199920709E+01 0.75053614545E+01
 0.12683353715E+02 0.31340208818E+02 0.77085340078E+02 0.15363994327E+03 0.25039346718E+03
 0.34560026182E+03 0.41493405631E+03 0.36750190733E+03 0.30440256949E+03 0.21852285403E+03
 0.13239101307E+03 0.65506121037E+02 0.26654098381E+02 0.11473814566E+02 0.70882981966E+01
 0.48051865013E+01 0.36547377695E+01 0.31827146812E+01 0.30656663724E+01 0.31826432632E+01
 0.36545648708E+01 0.48046458090E+01 0.70875367684E+01 0.11474344514E+02 0.26657737003E+02
 0.65511793483E+02 0.13239350855E+03 0.21851705790E+03 0.30438993868E+03 0.36749126458E+03
 0.39063774728E+03 0.30440256949E+03 0.23372439609E+03 0.15319484061E+03 0.83181695974E+02
 0.36766417654E+02 0.14990481928E+02 0.83496347134E+01 0.55339451002E+01 0.40011403269E+01
 0.32975215572E+01 0.30525531488E+01 0.30524607189E+01 0.32973638581E+01 0.40008591092E+01
 0.55331220086E+01 0.83485648494E+01 0.14990921118E+02 0.36769817967E+02 0.83186368339E+02
 0.15319629972E+03 0.23371996210E+03 0.30439528749E+03 0.34560083816E+03 0.34560440101E+03
 0.21852285403E+03 0.15319484061E+03 0.89948751195E+02 0.43294503539E+02 0.18241468166E+02
 0.93988705628E+01 0.61930008730E+01 0.43495221695E+01 0.34264278948E+01 0.30487121638E+01
 0.29551439870E+01 0.30486311141E+01 0.34263507192E+01 0.43490973274E+01 0.61917404782E+01
 0.93973374236E+01 0.18241454500E+02 0.43297169196E+02 0.89952801039E+02 0.15319745671E+03
 0.21852272766E+03 0.26765597921E+03 0.28589112143E+03 0.26765721962E+03 0.13239101307E+03
 0.83181695974E+02 0.43294503539E+02 0.19573806954E+02 0.10063524115E+02 0.66531618131E+01
 0.46342595262E+01 0.35487655688E+01 0.30524109930E+01 0.28796253524E+01 0.28796396849E+01
 0.30524680718E+01 0.35487100852E+01 0.46335911408E+01 0.66515377316E+01 0.10061603699E+02
 0.19573269572E+02 0.43296722407E+02 0.83186346924E+02 0.13239621913E+03 0.17760408608E+03
 0.20466998918E+03 0.20466865233E+03 0.17760030436E+03 0.65506121037E+02 0.36766417654E+02
 0.18241468166E+02 0.10063524115E+02 0.68182200738E+01 0.47943377118E+01 0.36373206717E+01
 0.30602776459E+01 0.28229405233E+01 0.27634871447E+01 0.28229119616E+01 0.30603383532E+01
 0.36373126635E+01 0.47936794480E+01 0.68164961534E+01 0.10061367667E+02 0.18240685293E+02
 0.36768813235E+02 0.65511837894E+02 0.97828621298E+02 0.12341143078E+03 0.13313970252E+03
 0.12340674174E+03 0.97821733090E+02 0.26654098381E+02 0.14990481928E+02 0.93988705628E+01
 0.66531618131E+01 0.47943377118E+01 0.36696023990E+01 0.30663750661E+01 0.27871222980E+01
 0.26868544165E+01 0.26867806307E+01 0.27870663400E+01 0.30665334602E+01 0.36697242065E+01
 0.47937446488E+01 0.66514761861E+01 0.93968372430E+01 0.14989979572E+02 0.26656881955E+02
 0.43563923823E+02 0.60699149007E+02 0.71518390889E+02 0.71515779279E+02 0.60693048699E+02
 0.43558071192E+02 0.11473814566E+02 0.83496347134E+01 0.61930008730E+01 0.46342595262E+01
 0.36373206717E+01 0.30663750661E+01 0.27747488981E+01 0.26475085330E+01 0.26132042277E+01
 0.26475030770E+01 0.27747857473E+01 0.30664889669E+01 0.36373383668E+01 0.46337331131E+01
 0.61916696362E+01 0.83481804429E+01 0.11473812626E+02 0.17118935451E+02 0.24731754010E+02
 0.31467653342E+02 0.34163261053E+02 0.31464241212E+02 0.24727388422E+02 0.17116334836E+02
 0.70882981966E+01 0.55339451002E+01 0.43495221695E+01 0.35487655688E+01 0.30602776459E+01
 0.27871222980E+01 0.26475085330E+01 0.25895165631E+01 0.25895483542E+01 0.26475245734E+01
 0.27870593311E+01 0.30602416685E+01 0.35487586581E+01 0.43492150682E+01 0.55330934219E+01
 0.70874210900E+01 0.88727113007E+01 0.10974296743E+02 0.13357793019E+02 0.15027831410E+02
 0.15026798545E+02 0.13355559668E+02 0.10972605260E+02 0.88725346845E+01 0.48051865013E+01
 0.40011403269E+01 0.34264278948E+01 0.30524109930E+01 0.28229405233E+01 0.26868544165E+01
 0.26132042277E+01 0.25895483542E+01 0.26132118878E+01 0.26868171832E+01 0.28228749789E+01
 0.30523947510E+01 0.34264096522E+01 0.40009070321E+01 0.48046610326E+01 0.58028967652E+01
 0.68794642929E+01 0.78549757958E+01 0.85378832154E+01 0.87866711224E+01 0.85371553112E+01
 0.78542368394E+01 0.68793570108E+01 0.58033685480E+01 0.36547377695E+01 0.32975215572E+01
 0.30487121638E+01 0.28796253524E+01 0.27634871447E+01 0.26867806307E+01 0.26475030770E+01
 0.26475245734E+01 0.26868171832E+01 0.27634865273E+01 0.28795692437E+01 0.30486305461E+01
 0.32974244823E+01 0.36545855890E+01 0.41279524213E+01 0.46835119189E+01 0.52418810062E+01
 0.56979853033E+01 0.59547199283E+01 0.59546267522E+01 0.56978305535E+01 0.52418687479E+01
 0.46836788641E+01 0.41281663393E+01 0.31827146812E+01 0.30525531488E+01 0.29551439870E+01
 0.28796396849E+01 0.28229119616E+01 0.27870663400E+01 0.27747857473E+01 0.27870593311E+01
 0.28228749789E+01 0.28795692437E+01 0.29550729769E+01 0.30525184061E+01 0.31827088363E+01
 0.33583817744E+01 0.35809996192E+01 0.38296427957E+01 0.40619442619E+01 0.42278594043E+01
 0.42880655945E+01 0.42278395411E+01 0.40619363216E+01 0.38296659258E+01 0.35810321178E+01
 0.33583954884E+01 0.30656663724E+01 0.30524607189E+01 0.30486311141E+01 0.30524680718E+01
 0.30603383532E+01 0.30665334602E+01 0.30664889669E+01 0.30602416685E+01 0.30523947510E+01
 0.30486305461E+01 0.30525184061E+01 0.30657348834E+01 0.30904750435E+01 0.31298892873E+01
 0.31845295077E+01 0.32477462393E+01 0.33050618848E+01 0.33394328896E+01 0.33394098729E+01
 0.33050076228E+01 0.32476939426E+01 0.31844947806E+01 0.31298595370E+01 0.30904275839E+01
 0.31826432632E+01 0.32973638581E+01 0.34263507192E+01 0.35487100852E+01 0.36373126635E+01
 0.36697242065E+01 0.36373383668E+01 0.35487586581E+01 0.34264096522E+01 0.32974244823E+01
 0.31827088363E+01 0.30904750435E+01 0.30182916369E+01 0.29608278334E+01 0.29158420903E+01
 0.28840859986E+01 0.28659405039E+01 0.28601838369E+01 0.28659306617E+01 0.28840782565E+01
 0.29158301005E+01 0.29607920358E+01 0.30182283461E+01 0.30904025453E+01 0.36545648708E+01
 0.40008591092E+01 0.43490973274E+01 0.46335911408E+01 0.47936794480E+01 0.47937446488E+01
 0.46337331131E+01 0.43492150682E+01 0.40009070321E+01 0.36545855890E+01 0.33583817744E+01
 0.31298892873E+01 0.29608278334E+01 0.28338094604E+01 0.27372753568E+01 0.26695146075E+01
 0.26340758739E+01 0.26341000969E+01 0.26695801821E+01 0.27373506137E+01 0.28338463303E+01
 0.29607973197E+01 0.31298206712E+01 0.33583328718E+01 0.48046458090E+01 0.55331220086E+01
 0.61917404782E+01 0.66515377316E+01 0.68164961534E+01 0.66514761861E+01 0.61916696362E+01
 0.55330934219E+01 0.48046610326E+01 0.41279524213E+01 0.35809996192E+01 0.31845295077E+01
 0.29158420903E+01 0.27372753568E+01 0.26196669787E+01 0.25501079035E+01 0.25267391845E+01
 0.25501872207E+01 0.26197679443E+01 0.27373427597E+01 0.29158638046E+01 0.31845262930E+01
 0.35809845843E+01 0.41279265044E+01 0.70875367684E+01 0.83485648494E+01 0.93973374236E+01
 0.10061603699E+02 0.10061367667E+02 0.93968372430E+01 0.83481804429E+01 0.70874210900E+01
 0.58028967652E+01 0.46835119189E+01 0.38296427957E+01 0.32477462393E+01 0.28840859986E+01
 0.26695146075E+01 0.25501079035E+01 0.24960518514E+01 0.24960879339E+01 0.25501799291E+01
 0.26695627069E+01 0.28841005486E+01 0.32477705838E+01 0.38296796815E+01 0.46835091440E+01
 0.58028744764E+01 0.11474344514E+02 0.14990921118E+02 0.18241454500E+02 0.19573269572E+02
 0.18240685293E+02 0.14989979572E+02 0.11473812626E+02 0.88727113007E+01 0.68794642929E+01
 0.52418810062E+01 0.40619442619E+01 0.33050618848E+01 0.28659405039E+01 0.26340758739E+01
 0.25267391845E+01 0.24960879339E+01 0.25267427039E+01 0.26340557683E+01 0.28659150469E+01
 0.33050911363E+01 0.40620079029E+01 0.52418674109E+01 0.68793570108E+01 0.88727602679E+01
 0.26657737003E+02 0.36769817967E+02 0.43297169196E+02 0.43296722407E+02 0.36768813235E+02
 0.26656881955E+02 0.17118935451E+02 0.10974296743E+02 0.78549757958E+01 0.56979853033E+01
 0.42278594043E+01 0.33394328896E+01 0.28601838369E+01 0.26341000969E+01 0.25501872207E+01
 0.25501799291E+01 0.26340557683E+01 0.28601126653E+01 0.33394288985E+01 0.42279388669E+01
 0.56979874278E+01 0.78547748674E+01 0.10974115002E+02 0.17119204549E+02 0.65511793483E+02
 0.83186368339E+02 0.89952801039E+02 0.83186346924E+02 0.65511837894E+02 0.43563923823E+02
 0.24731754010E+02 0.13357793019E+02 0.85378832154E+01 0.59547199283E+01 0.42880655945E+01
 0.33394098729E+01 0.28659306617E+01 0.26695801821E+01 0.26197679443E+01 0.26695627069E+01
 0.28659150469E+01 0.33394288985E+01 0.42881310749E+01 0.59547857039E+01 0.85378570786E+01
 0.13357635520E+02 0.24731526709E+02 0.43563756722E+02 0.13239350855E+03 0.15319629972E+03
 0.15319745671E+03 0.13239621913E+03 0.97828621298E+02 0.60699149007E+02 0.31467653342E+02
 0.15027831410E+02 0.87866711224E+01 0.59546267522E+01 0.42278395411E+01 0.33050076228E+01
 0.28840782565E+01 0.27373506137E+01 0.27373427597E+01 0.28841005486E+01 0.33050911363E+01
 0.42279388669E+01 0.59547857039E+01 0.87870668514E+01 0.15028383197E+02 0.31467690298E+02