   1   1   0   0
  0.1176147E+02  0.2552656E-09  0.2552656E-09  0.2552656E-09  0.5000000E-15
  1.000000000000000E-004
  CAR 
 unknown system                          
     37.26241211    -67.89800157  301      6.33400723      1.00000000
    -67.898  0.0000E+00  0.0000E+00
    -67.547  0.0000E+00  0.0000E+00
    -67.197  0.0000E+00  0.0000E+00
    -66.846  0.0000E+00  0.0000E+00
    -66.496  0.0000E+00  0.0000E+00
    -66.145  0.0000E+00  0.0000E+00
    -65.795  0.0000E+00  0.0000E+00
    -65.444  0.0000E+00  0.0000E+00
    -65.094  0.0000E+00  0.0000E+00
    -64.743  0.0000E+00  0.0000E+00
    -64.393  0.0000E+00  0.0000E+00
    -64.042  0.8563E-10  0.3002E-10
    -63.692  0.1049E-03  0.3677E-04
    -63.341  0.4364E+00  0.1530E+00
    -62.991  0.1114E+02  0.4060E+01
    -62.640  0.5499E+01  0.5987E+01
    -62.289  0.3626E-01  0.6000E+01
    -61.939  0.1217E-05  0.6000E+01
    -61.588  0.1427E-12  0.6000E+01
    -61.238  0.0000E+00  0.6000E+01
    -60.887  0.0000E+00  0.6000E+01
    -60.537  0.0000E+00  0.6000E+01
    -60.186  0.0000E+00  0.6000E+01
    -59.836  0.0000E+00  0.6000E+01
    -59.485  0.0000E+00  0.6000E+01
    -59.135  0.0000E+00  0.6000E+01
    -58.784  0.0000E+00  0.6000E+01
    -58.434  0.0000E+00  0.6000E+01
    -58.083  0.0000E+00  0.6000E+01
    -57.732  0.0000E+00  0.6000E+01
    -57.382  0.0000E+00  0.6000E+01
    -57.031  0.0000E+00  0.6000E+01
    -56.681  0.0000E+00  0.6000E+01
    -56.330  0.0000E+00  0.6000E+01
    -55.980  0.0000E+00  0.6000E+01
    -55.629  0.0000E+00  0.6000E+01
    -55.279  0.0000E+00  0.6000E+01
    -54.928  0.0000E+00  0.6000E+01
    -54.578  0.0000E+00  0.6000E+01
    -54.227  0.0000E+00  0.6000E+01
    -53.877  0.0000E+00  0.6000E+01
    -53.526  0.0000E+00  0.6000E+01
    -53.176  0.0000E+00  0.6000E+01
    -52.825  0.0000E+00  0.6000E+01
    -52.474  0.0000E+00  0.6000E+01
    -52.124  0.0000E+00  0.6000E+01
    -51.773  0.0000E+00  0.6000E+01
    -51.423  0.0000E+00  0.6000E+01
    -51.072  0.0000E+00  0.6000E+01
    -50.722  0.0000E+00  0.6000E+01
    -50.371  0.0000E+00  0.6000E+01
    -50.021  0.0000E+00  0.6000E+01
    -49.670  0.0000E+00  0.6000E+01
    -49.320  0.0000E+00  0.6000E+01
    -48.969  0.0000E+00  0.6000E+01
    -48.619  0.0000E+00  0.6000E+01
    -48.268  0.0000E+00  0.6000E+01
    -47.918  0.0000E+00  0.6000E+01
    -47.567  0.0000E+00  0.6000E+01
    -47.216  0.0000E+00  0.6000E+01
    -46.866  0.0000E+00  0.6000E+01
    -46.515  0.0000E+00  0.6000E+01
    -46.165  0.0000E+00  0.6000E+01
    -45.814  0.0000E+00  0.6000E+01
    -45.464  0.0000E+00  0.6000E+01
    -45.113  0.0000E+00  0.6000E+01
    -44.763  0.0000E+00  0.6000E+01
    -44.412  0.0000E+00  0.6000E+01
    -44.062  0.0000E+00  0.6000E+01
    -43.711  0.0000E+00  0.6000E+01
    -43.361  0.0000E+00  0.6000E+01
    -43.010  0.0000E+00  0.6000E+01
    -42.660  0.0000E+00  0.6000E+01
    -42.309  0.0000E+00  0.6000E+01
    -41.958  0.0000E+00  0.6000E+01
    -41.608  0.0000E+00  0.6000E+01
    -41.257  0.0000E+00  0.6000E+01
    -40.907  0.0000E+00  0.6000E+01
    -40.556  0.0000E+00  0.6000E+01
    -40.206  0.0000E+00  0.6000E+01
    -39.855  0.0000E+00  0.6000E+01
    -39.505  0.0000E+00  0.6000E+01
    -39.154  0.0000E+00  0.6000E+01
    -38.804  0.0000E+00  0.6000E+01
    -38.453  0.0000E+00  0.6000E+01
    -38.103  0.0000E+00  0.6000E+01
    -37.752  0.0000E+00  0.6000E+01
    -37.401  0.0000E+00  0.6000E+01
    -37.051  0.0000E+00  0.6000E+01
    -36.700  0.0000E+00  0.6000E+01
    -36.350  0.0000E+00  0.6000E+01
    -35.999  0.0000E+00  0.6000E+01
    -35.649  0.0000E+00  0.6000E+01
    -35.298  0.0000E+00  0.6000E+01
    -34.948  0.0000E+00  0.6000E+01
    -34.597  0.0000E+00  0.6000E+01
    -34.247  0.0000E+00  0.6000E+01
    -33.896  0.0000E+00  0.6000E+01
    -33.546  0.0000E+00  0.6000E+01
    -33.195  0.0000E+00  0.6000E+01
    -32.845  0.0000E+00  0.6000E+01
    -32.494  0.0000E+00  0.6000E+01
    -32.143  0.0000E+00  0.6000E+01
    -31.793  0.0000E+00  0.6000E+01
    -31.442  0.0000E+00  0.6000E+01
    -31.092  0.0000E+00  0.6000E+01
    -30.741  0.0000E+00  0.6000E+01
    -30.391  0.0000E+00  0.6000E+01
    -30.040  0.0000E+00  0.6000E+01
    -29.690  0.0000E+00  0.6000E+01
    -29.339  0.0000E+00  0.6000E+01
    -28.989  0.0000E+00  0.6000E+01
    -28.638  0.0000E+00  0.6000E+01
    -28.288  0.0000E+00  0.6000E+01
    -27.937  0.0000E+00  0.6000E+01
    -27.587  0.0000E+00  0.6000E+01
    -27.236  0.0000E+00  0.6000E+01
    -26.885  0.0000E+00  0.6000E+01
    -26.535  0.0000E+00  0.6000E+01
    -26.184  0.0000E+00  0.6000E+01
    -25.834  0.0000E+00  0.6000E+01
    -25.483  0.0000E+00  0.6000E+01
    -25.133  0.0000E+00  0.6000E+01
    -24.782  0.0000E+00  0.6000E+01
    -24.432  0.0000E+00  0.6000E+01
    -24.081  0.0000E+00  0.6000E+01
    -23.731  0.0000E+00  0.6000E+01
    -23.380  0.0000E+00  0.6000E+01
    -23.030  0.0000E+00  0.6000E+01
    -22.679  0.0000E+00  0.6000E+01
    -22.328  0.0000E+00  0.6000E+01
    -21.978  0.0000E+00  0.6000E+01
    -21.627  0.0000E+00  0.6000E+01
    -21.277  0.0000E+00  0.6000E+01
    -20.926  0.0000E+00  0.6000E+01
    -20.576  0.0000E+00  0.6000E+01
    -20.225  0.0000E+00  0.6000E+01
    -19.875  0.0000E+00  0.6000E+01
    -19.524  0.0000E+00  0.6000E+01
    -19.174  0.0000E+00  0.6000E+01
    -18.823  0.0000E+00  0.6000E+01
    -18.473  0.0000E+00  0.6000E+01
    -18.122  0.0000E+00  0.6000E+01
    -17.772  0.0000E+00  0.6000E+01
    -17.421  0.0000E+00  0.6000E+01
    -17.070  0.0000E+00  0.6000E+01
    -16.720  0.0000E+00  0.6000E+01
    -16.369  0.0000E+00  0.6000E+01
    -16.019  0.0000E+00  0.6000E+01
    -15.668  0.0000E+00  0.6000E+01
    -15.318  0.0000E+00  0.6000E+01
    -14.967  0.0000E+00  0.6000E+01
    -14.617  0.0000E+00  0.6000E+01
    -14.266  0.0000E+00  0.6000E+01
    -13.916  0.0000E+00  0.6000E+01
    -13.565  0.0000E+00  0.6000E+01
    -13.215  0.0000E+00  0.6000E+01
    -12.864  0.0000E+00  0.6000E+01
    -12.514  0.0000E+00  0.6000E+01
    -12.163  0.0000E+00  0.6000E+01
    -11.812  0.0000E+00  0.6000E+01
    -11.462  0.0000E+00  0.6000E+01
    -11.111  0.0000E+00  0.6000E+01
    -10.761  0.0000E+00  0.6000E+01
    -10.410  0.0000E+00  0.6000E+01
    -10.060  0.0000E+00  0.6000E+01
     -9.709  0.0000E+00  0.6000E+01
     -9.359  0.0000E+00  0.6000E+01
     -9.008  0.0000E+00  0.6000E+01
     -8.658  0.0000E+00  0.6000E+01
     -8.307  0.0000E+00  0.6000E+01
     -7.957  0.0000E+00  0.6000E+01
     -7.606  0.0000E+00  0.6000E+01
     -7.255  0.0000E+00  0.6000E+01
     -6.905  0.0000E+00  0.6000E+01
     -6.554  0.0000E+00  0.6000E+01
     -6.204  0.0000E+00  0.6000E+01
     -5.853  0.0000E+00  0.6000E+01
     -5.503  0.0000E+00  0.6000E+01
     -5.152  0.0000E+00  0.6000E+01
     -4.802  0.0000E+00  0.6000E+01
     -4.451  0.0000E+00  0.6000E+01
     -4.101  0.0000E+00  0.6000E+01
     -3.750  0.0000E+00  0.6000E+01
     -3.400  0.1534E-12  0.6000E+01
     -3.049  0.2649E-06  0.6000E+01
     -2.699  0.1292E-02  0.6000E+01
     -2.348  0.3214E-01  0.6012E+01
     -1.997  0.8837E-01  0.6043E+01
     -1.647  0.1333E+00  0.6089E+01
     -1.296  0.4822E-01  0.6106E+01
     -0.946  0.1164E+00  0.6147E+01
     -0.595  0.2627E+00  0.6239E+01
     -0.245  0.5958E-01  0.6260E+01
      0.106  0.1152E+00  0.6300E+01
      0.456  0.2524E+00  0.6389E+01
      0.807  0.2186E+00  0.6466E+01
      1.157  0.3147E+00  0.6576E+01
      1.508  0.1980E+00  0.6645E+01
      1.858  0.8376E+00  0.6939E+01
      2.209  0.1018E+01  0.7296E+01
      2.559  0.1554E+01  0.7840E+01
      2.910  0.1920E+01  0.8514E+01
      3.261  0.1966E+01  0.9203E+01
      3.611  0.2914E+01  0.1022E+02
      3.962  0.4691E+01  0.1187E+02
      4.312  0.3073E+01  0.1295E+02
      4.663  0.3263E+01  0.1409E+02
      5.013  0.3893E+01  0.1545E+02
      5.364  0.3099E+01  0.1654E+02
      5.714  0.5313E+00  0.1673E+02
      6.065  0.5888E+00  0.1693E+02
      6.415  0.2304E+00  0.1701E+02
      6.766  0.2437E+00  0.1710E+02
      7.116  0.2148E+00  0.1717E+02
      7.467  0.1936E+00  0.1724E+02
      7.817  0.4504E+00  0.1740E+02
      8.168  0.1833E+00  0.1746E+02
      8.519  0.2134E+00  0.1754E+02
      8.869  0.1725E+00  0.1760E+02
      9.220  0.2443E+00  0.1769E+02
      9.570  0.8778E-01  0.1772E+02
      9.921  0.1548E+00  0.1777E+02
     10.271  0.1462E+00  0.1782E+02
     10.622  0.2267E+00  0.1790E+02
     10.972  0.1787E+00  0.1796E+02
     11.323  0.3518E+00  0.1809E+02
     11.673  0.2952E+00  0.1819E+02
     12.024  0.2199E+00  0.1827E+02
     12.374  0.3257E+00  0.1838E+02
     12.725  0.5533E-01  0.1840E+02
     13.076  0.2414E+00  0.1849E+02
     13.426  0.3203E-01  0.1850E+02
     13.777  0.2288E+00  0.1858E+02
     14.127  0.4168E+00  0.1872E+02
     14.478  0.3482E+00  0.1885E+02
     14.828  0.3226E+00  0.1896E+02
     15.179  0.1997E+00  0.1903E+02
     15.529  0.3608E+00  0.1915E+02
     15.880  0.3652E+00  0.1928E+02
     16.230  0.2811E+00  0.1938E+02
     16.581  0.2168E+00  0.1946E+02
     16.931  0.1927E+00  0.1953E+02
     17.282  0.2830E+00  0.1962E+02
     17.632  0.4475E+00  0.1978E+02
     17.983  0.3148E+00  0.1989E+02
     18.334  0.3006E+00  0.2000E+02
     18.684  0.2561E+00  0.2009E+02
     19.035  0.5610E+00  0.2028E+02
     19.385  0.3634E+00  0.2041E+02
     19.736  0.4142E+00  0.2056E+02
     20.086  0.3151E+00  0.2067E+02
     20.437  0.2746E+00  0.2076E+02
     20.787  0.4214E+00  0.2091E+02
     21.138  0.2385E+00  0.2099E+02
     21.488  0.5540E+00  0.2119E+02
     21.839  0.5790E+00  0.2139E+02
     22.189  0.4377E+00  0.2154E+02
     22.540  0.1314E+00  0.2159E+02
     22.890  0.1319E+00  0.2164E+02
     23.241  0.3694E+00  0.2177E+02
     23.592  0.2568E+00  0.2186E+02
     23.942  0.4577E+00  0.2202E+02
     24.293  0.4867E+00  0.2219E+02
     24.643  0.4078E+00  0.2233E+02
     24.994  0.1726E+00  0.2239E+02
     25.344  0.3168E+00  0.2250E+02
     25.695  0.1495E+00  0.2255E+02
     26.045  0.1743E+00  0.2262E+02
     26.396  0.4220E+00  0.2276E+02
     26.746  0.3940E+00  0.2290E+02
     27.097  0.7750E-01  0.2293E+02
     27.447  0.4080E+00  0.2307E+02
     27.798  0.1762E+00  0.2313E+02
     28.149  0.2048E+00  0.2321E+02
     28.499  0.3201E+00  0.2332E+02
     28.850  0.1039E+00  0.2335E+02
     29.200  0.3318E+00  0.2347E+02
     29.551  0.3966E+00  0.2361E+02
     29.901  0.2198E+00  0.2369E+02
     30.252  0.1588E+00  0.2374E+02
     30.602  0.1652E+00  0.2380E+02
     30.953  0.2731E-01  0.2381E+02
     31.303  0.1621E+00  0.2387E+02
     31.654  0.1822E+00  0.2393E+02
     32.004  0.8023E-02  0.2393E+02
     32.355  0.8207E-01  0.2396E+02
     32.705  0.1045E+00  0.2400E+02
     33.056  0.5438E-02  0.2400E+02
     33.407  0.2282E-05  0.2400E+02
     33.757  0.2907E-11  0.2400E+02
     34.108  0.0000E+00  0.2400E+02
     34.458  0.0000E+00  0.2400E+02
     34.809  0.0000E+00  0.2400E+02
     35.159  0.0000E+00  0.2400E+02
     35.510  0.0000E+00  0.2400E+02
     35.860  0.0000E+00  0.2400E+02
     36.211  0.0000E+00  0.2400E+02
     36.561  0.0000E+00  0.2400E+02
     36.912  0.0000E+00  0.2400E+02
     37.262  0.0000E+00  0.2400E+02
