    1    1    1    1
  0.1176147E+02  0.2552655E-09  0.2552655E-09  0.2552655E-09  0.5000000E-15
  1.000000000000000E-004
  CAR 
 unknown system                          
   17 1000   12
 
  0.0000000E+00  0.0000000E+00  0.0000000E+00  0.1000000E-02
   1      -62.986519
   2      -62.985799
   3      -62.985798
   4       -2.428972
   5        3.734496
   6        3.734529
   7        3.734531
   8        4.621443
   9        4.621443
  10       29.789250
  11       32.482354
  12       32.482391
 
  0.0000000E+00  0.0000000E+00  0.1111000E+00  0.1000000E-02
   1      -63.099994
   2      -63.046326
   3      -63.045668
   4       -1.982008
   5        3.627837
   6        3.804898
   7        3.804931
   8        4.533606
   9        4.533607
  10       26.621420
  11       30.461410
  12       31.402040
 
  0.0000000E+00  0.0000000E+00  0.2222000E+00  0.1000000E-02
   1      -63.117983
   2      -63.117285
   3      -63.105356
   4       -0.718466
   5        3.487382
   6        3.869601
   7        3.869645
   8        4.570200
   9        4.570230
  10       20.835787
  11       29.824839
  12       30.194408
 
  0.0000000E+00  0.0000000E+00  0.3333000E+00  0.1000000E-02
   1      -63.094132
   2      -63.091946
   3      -63.091299
   4        0.904798
   5        3.774842
   6        3.793782
   7        3.793826
   8        4.868937
   9        4.869000
  10       15.578019
  11       28.926177
  12       29.525626
 
  0.0000000E+00  0.0000000E+00  0.4444000E+00  0.1000000E-02
   1      -63.114854
   2      -63.110835
   3      -63.110168
   4        1.676540
   5        3.692424
   6        3.692468
   7        5.092240
   8        5.092296
   9        5.380016
  10       11.481082
  11       28.293449
  12       29.288454
 
  0.0000000E+00  0.0000000E+00  0.5556000E+00  0.1000000E-02
   1      -63.114854
   2      -63.110835
   3      -63.110168
   4        1.676540
   5        3.692424
   6        3.692468
   7        5.092240
   8        5.092296
   9        5.380016
  10       11.481081
  11       28.293450
  12       29.288319
 
  0.0000000E+00  0.0000000E+00  0.6667000E+00  0.1000000E-02
   1      -63.094132
   2      -63.091946
   3      -63.091299
   4        0.904798
   5        3.774842
   6        3.793782
   7        3.793826
   8        4.868937
   9        4.869000
  10       15.578019
  11       28.926179
  12       29.525629
 
  0.0000000E+00  0.0000000E+00  0.7778000E+00  0.1000000E-02
   1      -63.117983
   2      -63.117285
   3      -63.105356
   4       -0.718466
   5        3.487382
   6        3.869601
   7        3.869645
   8        4.570200
   9        4.570230
  10       20.835787
  11       29.824842
  12       30.194432
 
  0.0000000E+00  0.0000000E+00  0.8889000E+00  0.1000000E-02
   1      -63.099994
   2      -63.046326
   3      -63.045668
   4       -1.982008
   5        3.627837
   6        3.804898
   7        3.804931
   8        4.533606
   9        4.533607
  10       26.621420
  11       30.461408
  12       31.402031
 
  0.0000000E+00  0.0000000E+00  0.1000000E+01  0.1000000E-02
   1      -62.986519
   2      -62.985799
   3      -62.985798
   4       -2.428972
   5        3.734496
   6        3.734529
   7        3.734531
   8        4.621443
   9        4.621443
  10       29.789250
  11       32.482334
  12       32.482393
 
  0.0000000E+00  0.1111000E+00  0.0000000E+00  0.1000000E-02
   1      -63.099994
   2      -63.046326
   3      -63.045667
   4       -1.982008
   5        3.627835
   6        3.804898
   7        3.804933
   8        4.533605
   9        4.533607
  10       26.621422
  11       30.461410
  12       31.402029
 
  0.0000000E+00  0.1111000E+00  0.1111000E+00  0.1000000E-02
   1      -63.116040
   2      -63.025390
   3      -63.024892
   4       -1.834139
   5        3.545359
   6        3.851734
   7        3.851761
   8        4.409149
   9        4.686262
  10       28.259974
  11       28.929618
  12       28.929675
 
  0.0000000E+00  0.1111000E+00  0.2222000E+00  0.1000000E-02
   1      -63.088106
   2      -63.064050
   3      -63.032731
   4       -0.842830
   5        3.372311
   6        3.951413
   7        4.007992
   8        4.390082
   9        4.723080
  10       23.045944
  11       27.225394
  12       28.228272
 
  0.0000000E+00  0.1111000E+00  0.3333000E+00  0.1000000E-02
   1      -63.097128
   2      -63.066414
   3      -63.064507
   4        0.716299
   5        3.328393
   6        3.785232
   7        3.989587
   8        4.862342
   9        4.938743
  10       17.555698
  11       26.346770
  12       27.343398
 
  0.0000000E+00  0.1111000E+00  0.4444000E+00  0.1000000E-02
   1      -63.106974
   2      -63.077926
   3      -63.048563
   4        1.802261
   5        3.579447
   6        3.868839
   7        3.957855
   8        5.125077
   9        6.019699
  10       12.890646
  11       25.869304
  12       26.382600
 
  0.0000000E+00  0.1111000E+00  0.5556000E+00  0.1000000E-02
   1      -63.089556
   2      -63.063738
   3      -62.977959
   4        1.992088
   5        3.555988
   6        3.818022
   7        4.337279
   8        5.115882
   9        7.102269
  10       10.931290
  11       24.503691
  12       27.446586
 
  0.0000000E+00  0.1111000E+00  0.6667000E+00  0.1000000E-02
   1      -63.109684
   2      -63.060504
   3      -63.040457
   4        1.587260
   5        3.672120
   6        3.749566
   7        3.882180
   8        4.821094
   9        5.697130
  10       14.328528
  11       23.906212
  12       29.341239
 
  0.0000000E+00  0.1111000E+00  0.7778000E+00  0.1000000E-02
   1      -63.089348
   2      -63.059259
   3      -63.009776
   4        0.179770
   5        3.365434
   6        3.857460
   7        4.007973
   8        4.439452
   9        5.031957
  10       19.326926
  11       24.142346
  12       31.256312
 
  0.0000000E+00  0.1111000E+00  0.8889000E+00  0.1000000E-02
   1      -63.080512
   2      -63.074312
   3      -63.006865
   4       -1.259301
   5        3.488839
   6        3.896933
   7        3.929671
   8        4.371399
   9        4.709570
  10       24.691510
  11       25.453634
  12       32.298639
 
  0.0000000E+00  0.1111000E+00  0.1000000E+01  0.1000000E-02
   1      -63.099994
   2      -63.046326
   3      -63.045667
   4       -1.982008
   5        3.627835
   6        3.804898
   7        3.804933
   8        4.533605
   9        4.533607
  10       26.621422
  11       30.461411
  12       31.402014
 
  0.0000000E+00  0.2222000E+00  0.0000000E+00  0.1000000E-02
   1      -63.117983
   2      -63.117285
   3      -63.105357
   4       -0.718465
   5        3.487380
   6        3.869601
   7        3.869647
   8        4.570201
   9        4.570229
  10       20.835789
  11       29.824853
  12       30.194427
 
  0.0000000E+00  0.2222000E+00  0.1111000E+00  0.1000000E-02
   1      -63.088106
   2      -63.064050
   3      -63.032731
   4       -0.842830
   5        3.372309
   6        3.951415
   7        4.007992
   8        4.390081
   9        4.723080
  10       23.045946
  11       27.225394
  12       28.228274
 
  0.0000000E+00  0.2222000E+00  0.2222000E+00  0.1000000E-02
   1      -63.108299
   2      -63.025703
   3      -63.025202
   4       -0.183652
   5        3.125901
   6        4.139069
   7        4.255505
   8        4.255533
   9        4.853409
  10       25.041143
  11       25.041205
  12       26.398619
 
  0.0000000E+00  0.2222000E+00  0.3333000E+00  0.1000000E-02
   1      -63.090846
   2      -63.059400
   3      -63.024369
   4        1.037696
   5        2.944041
   6        3.897066
   7        4.410594
   8        4.914799
   9        4.985310
  10       20.176522
  11       23.761711
  12       24.140332
 
  0.0000000E+00  0.2222000E+00  0.4444000E+00  0.1000000E-02
   1      -63.079834
   2      -63.043084
   3      -63.042351
   4        2.113228
   5        2.977426
   6        3.720696
   7        4.332452
   8        5.160509
   9        6.489194
  10       15.191282
  11       21.630786
  12       23.521905
 
  0.0000000E+00  0.2222000E+00  0.5556000E+00  0.1000000E-02
   1      -63.075074
   2      -63.042350
   3      -63.038176
   4        2.464262
   5        3.127647
   6        3.752789
   7        4.212754
   8        5.136208
   9        8.938498
  10       11.399247
  11       19.804978
  12       24.408069
 
  0.0000000E+00  0.2222000E+00  0.6667000E+00  0.1000000E-02
   1      -63.045630
   2      -63.037487
   3      -63.007097
   4        2.455146
   5        3.323764
   6        3.507642
   7        4.186381
   8        4.810475
   9        7.519553
  10       13.744691
  11       18.830485
  12       26.356224
 
  0.0000000E+00  0.2222000E+00  0.7778000E+00  0.1000000E-02
   1      -63.109689
   2      -63.049814
   3      -63.038731
   4        1.565975
   5        3.227533
   6        3.613670
   7        4.212981
   8        4.435643
   9        5.839764
  10       18.130512
  11       19.098550
  12       29.151271
 
  0.0000000E+00  0.2222000E+00  0.8889000E+00  0.1000000E-02
   1      -63.089348
   2      -63.059259
   3      -63.009776
   4        0.179771
   5        3.365432
   6        3.857461
   7        4.007973
   8        4.439453
   9        5.031957
  10       19.326928
  11       24.142343
  12       31.256319
 
  0.0000000E+00  0.2222000E+00  0.1000000E+01  0.1000000E-02
   1      -63.117983
   2      -63.117285
   3      -63.105357
   4       -0.718465
   5        3.487380
   6        3.869601
   7        3.869647
   8        4.570201
   9        4.570229
  10       20.835789
  11       29.824845
  12       30.194412
 
  0.0000000E+00  0.3333000E+00  0.0000000E+00  0.1000000E-02
   1      -63.094133
   2      -63.091947
   3      -63.091298
   4        0.904799
   5        3.774838
   6        3.793781
   7        3.793828
   8        4.868938
   9        4.869000
  10       15.578021
  11       28.926183
  12       29.525630
 
  0.0000000E+00  0.3333000E+00  0.1111000E+00  0.1000000E-02
   1      -63.097129
   2      -63.066413
   3      -63.064507
   4        0.716300
   5        3.328391
   6        3.785234
   7        3.989587
   8        4.862340
   9        4.938743
  10       17.555700
  11       26.346769
  12       27.343400
 
  0.0000000E+00  0.3333000E+00  0.2222000E+00  0.1000000E-02
   1      -63.090846
   2      -63.059400
   3      -63.024369
   4        1.037697
   5        2.944040
   6        3.897069
   7        4.410593
   8        4.914797
   9        4.985310
  10       20.176524
  11       23.761710
  12       24.140330
 
  0.0000000E+00  0.3333000E+00  0.3333000E+00  0.1000000E-02
   1      -63.085151
   2      -62.976120
   3      -62.975643
   4        1.576389
   5        2.680340
   6        4.773734
   7        4.819607
   8        4.819625
   9        5.070073
  10       20.694656
  11       22.047287
  12       22.047356
 
  0.0000000E+00  0.3333000E+00  0.4444000E+00  0.1000000E-02
   1      -63.061992
   2      -63.045366
   3      -63.004716
   4        2.034907
   5        2.569122
   6        4.527136
   7        4.846414
   8        5.181230
   9        6.763991
  10       17.894171
  11       18.265470
  12       21.415899
 
  0.0000000E+00  0.3333000E+00  0.5556000E+00  0.1000000E-02
   1      -63.059650
   2      -63.020665
   3      -62.974340
   4        2.402939
   5        2.686785
   6        4.127734
   7        4.710252
   8        5.219418
   9        9.677139
  10       13.839609
  11       16.013299
  12       22.012475
 
  0.0000000E+00  0.3333000E+00  0.6667000E+00  0.1000000E-02
   1      -63.054996
   2      -63.035997
   3      -63.034268
   4        2.729847
   5        2.924228
   6        3.647682
   7        4.521502
   8        4.956679
   9       10.168191
  10       12.887445
  11       15.474354
  12       23.736983
 
  0.0000000E+00  0.3333000E+00  0.7778000E+00  0.1000000E-02
   1      -63.045630
   2      -63.037488
   3      -63.007096
   4        2.455147
   5        3.323764
   6        3.507642
   7        4.186381
   8        4.810475
   9        7.519552
  10       13.744694
  11       18.830483
  12       26.356223
 
  0.0000000E+00  0.3333000E+00  0.8889000E+00  0.1000000E-02
   1      -63.109684
   2      -63.060504
   3      -63.040457
   4        1.587262
   5        3.672121
   6        3.749563
   7        3.882180
   8        4.821094
   9        5.697130
  10       14.328531
  11       23.906209
  12       29.341613
 
  0.0000000E+00  0.3333000E+00  0.1000000E+01  0.1000000E-02
   1      -63.094133
   2      -63.091947
   3      -63.091298
   4        0.904799
   5        3.774838
   6        3.793781
   7        3.793828
   8        4.868938
   9        4.869000
  10       15.578021
  11       28.926179
  12       29.525652
 
  0.0000000E+00  0.4444000E+00  0.0000000E+00  0.1000000E-02
   1      -63.114855
   2      -63.110836
   3      -63.110168
   4        1.676543
   5        3.692423
   6        3.692470
   7        5.092242
   8        5.092296
   9        5.380011
  10       11.481085
  11       28.293451
  12       29.288447
 
  0.0000000E+00  0.4444000E+00  0.1111000E+00  0.1000000E-02
   1      -63.106974
   2      -63.077927
   3      -63.048562
   4        1.802262
   5        3.579448
   6        3.868839
   7        3.957854
   8        5.125078
   9        6.019697
  10       12.890648
  11       25.869302
  12       26.382598
 
  0.0000000E+00  0.4444000E+00  0.2222000E+00  0.1000000E-02
   1      -63.079835
   2      -63.043084
   3      -63.042350
   4        2.113228
   5        2.977425
   6        3.720699
   7        4.332452
   8        5.160510
   9        6.489192
  10       15.191284
  11       21.630783
  12       23.521904
 
  0.0000000E+00  0.4444000E+00  0.3333000E+00  0.1000000E-02
   1      -63.061993
   2      -63.045366
   3      -63.004715
   4        2.034907
   5        2.569122
   6        4.527139
   7        4.846414
   8        5.181231
   9        6.763990
  10       17.894174
  11       18.265467
  12       21.415899
 
  0.0000000E+00  0.4444000E+00  0.4444000E+00  0.1000000E-02
   1      -63.037406
   2      -62.999437
   3      -62.998957
   4        1.943084
   5        2.384685
   6        5.180174
   7        5.231517
   8        5.231533
   9        7.580644
  10       15.268215
  11       20.357358
  12       20.357434
 
  0.0000000E+00  0.4444000E+00  0.5556000E+00  0.1000000E-02
   1      -63.060693
   2      -63.056281
   3      -63.055916
   4        2.052357
   5        2.423308
   6        4.889179
   7        5.033585
   8        5.257457
   9        9.168550
  10       14.180863
  11       17.484086
  12       20.566921
 
  0.0000000E+00  0.4444000E+00  0.6667000E+00  0.1000000E-02
   1      -63.059650
   2      -63.020665
   3      -62.974341
   4        2.402938
   5        2.686785
   6        4.127736
   7        4.710252
   8        5.219418
   9        9.677137
  10       13.839611
  11       16.013297
  12       22.012475
 
  0.0000000E+00  0.4444000E+00  0.7778000E+00  0.1000000E-02
   1      -63.075073
   2      -63.042350
   3      -63.038176
   4        2.464262
   5        3.127647
   6        3.752790
   7        4.212754
   8        5.136209
   9        8.938494
  10       11.399252
  11       19.804975
  12       24.408068
 
  0.0000000E+00  0.4444000E+00  0.8889000E+00  0.1000000E-02
   1      -63.089556
   2      -63.063738
   3      -62.977959
   4        1.992090
   5        3.555989
   6        3.818022
   7        4.337278
   8        5.115883
   9        7.102265
  10       10.931294
  11       24.503687
  12       27.446579
 
  0.0000000E+00  0.4444000E+00  0.1000000E+01  0.1000000E-02
   1      -63.114855
   2      -63.110836
   3      -63.110168
   4        1.676543
   5        3.692423
   6        3.692470
   7        5.092242
   8        5.092296
   9        5.380011
  10       11.481084
  11       28.293452
  12       29.288414
 
  0.0000000E+00  0.5556000E+00  0.0000000E+00  0.1000000E-02
   1      -63.114855
   2      -63.110835
   3      -63.110168
   4        1.676543
   5        3.692423
   6        3.692470
   7        5.092242
   8        5.092296
   9        5.380011
  10       11.481084
  11       28.293451
  12       29.288398
 
  0.0000000E+00  0.5556000E+00  0.1111000E+00  0.1000000E-02
   1      -63.089556
   2      -63.063738
   3      -62.977959
   4        1.992090
   5        3.555989
   6        3.818022
   7        4.337278
   8        5.115883
   9        7.102265
  10       10.931294
  11       24.503687
  12       27.446583
 
  0.0000000E+00  0.5556000E+00  0.2222000E+00  0.1000000E-02
   1      -63.075073
   2      -63.042350
   3      -63.038176
   4        2.464262
   5        3.127647
   6        3.752790
   7        4.212754
   8        5.136209
   9        8.938494
  10       11.399252
  11       19.804975
  12       24.408068
 
  0.0000000E+00  0.5556000E+00  0.3333000E+00  0.1000000E-02
   1      -63.059650
   2      -63.020665
   3      -62.974341
   4        2.402938
   5        2.686785
   6        4.127736
   7        4.710252
   8        5.219418
   9        9.677137
  10       13.839611
  11       16.013297
  12       22.012475
 
  0.0000000E+00  0.5556000E+00  0.4444000E+00  0.1000000E-02
   1      -63.060693
   2      -63.056281
   3      -63.055916
   4        2.052357
   5        2.423308
   6        4.889179
   7        5.033585
   8        5.257457
   9        9.168550
  10       14.180863
  11       17.484086
  12       20.566921
 
  0.0000000E+00  0.5556000E+00  0.5556000E+00  0.1000000E-02
   1      -63.037406
   2      -62.999437
   3      -62.998957
   4        1.943084
   5        2.384685
   6        5.180174
   7        5.231517
   8        5.231533
   9        7.580644
  10       15.268215
  11       20.357358
  12       20.357434
 
  0.0000000E+00  0.5556000E+00  0.6667000E+00  0.1000000E-02
   1      -63.061993
   2      -63.045366
   3      -63.004715
   4        2.034907
   5        2.569122
   6        4.527139
   7        4.846414
   8        5.181231
   9        6.763990
  10       17.894174
  11       18.265467
  12       21.415899
 
  0.0000000E+00  0.5556000E+00  0.7778000E+00  0.1000000E-02
   1      -63.079835
   2      -63.043084
   3      -63.042350
   4        2.113228
   5        2.977425
   6        3.720699
   7        4.332452
   8        5.160510
   9        6.489192
  10       15.191284
  11       21.630783
  12       23.521904
 
  0.0000000E+00  0.5556000E+00  0.8889000E+00  0.1000000E-02
   1      -63.106974
   2      -63.077927
   3      -63.048562
   4        1.802262
   5        3.579448
   6        3.868839
   7        3.957854
   8        5.125078
   9        6.019697
  10       12.890648
  11       25.869302
  12       26.382598
 
  0.0000000E+00  0.5556000E+00  0.1000000E+01  0.1000000E-02
   1      -63.114855
   2      -63.110835
   3      -63.110168
   4        1.676543
   5        3.692423
   6        3.692470
   7        5.092242
   8        5.092296
   9        5.380011
  10       11.481084
  11       28.293454
  12       29.288453
 
  0.0000000E+00  0.6667000E+00  0.0000000E+00  0.1000000E-02
   1      -63.094133
   2      -63.091947
   3      -63.091298
   4        0.904799
   5        3.774838
   6        3.793781
   7        3.793828
   8        4.868938
   9        4.869000
  10       15.578021
  11       28.926182
  12       29.525636
 
  0.0000000E+00  0.6667000E+00  0.1111000E+00  0.1000000E-02
   1      -63.109684
   2      -63.060504
   3      -63.040457
   4        1.587262
   5        3.672121
   6        3.749563
   7        3.882180
   8        4.821094
   9        5.697130
  10       14.328531
  11       23.906209
  12       29.341311
 
  0.0000000E+00  0.6667000E+00  0.2222000E+00  0.1000000E-02
   1      -63.045630
   2      -63.037488
   3      -63.007096
   4        2.455147
   5        3.323764
   6        3.507642
   7        4.186381
   8        4.810475
   9        7.519552
  10       13.744694
  11       18.830483
  12       26.356224
 
  0.0000000E+00  0.6667000E+00  0.3333000E+00  0.1000000E-02
   1      -63.054996
   2      -63.035997
   3      -63.034268
   4        2.729847
   5        2.924228
   6        3.647682
   7        4.521502
   8        4.956679
   9       10.168191
  10       12.887445
  11       15.474354
  12       23.736983
 
  0.0000000E+00  0.6667000E+00  0.4444000E+00  0.1000000E-02
   1      -63.059650
   2      -63.020665
   3      -62.974340
   4        2.402939
   5        2.686785
   6        4.127734
   7        4.710252
   8        5.219418
   9        9.677139
  10       13.839609
  11       16.013299
  12       22.012475
 
  0.0000000E+00  0.6667000E+00  0.5556000E+00  0.1000000E-02
   1      -63.061992
   2      -63.045366
   3      -63.004716
   4        2.034907
   5        2.569122
   6        4.527136
   7        4.846414
   8        5.181230
   9        6.763991
  10       17.894171
  11       18.265470
  12       21.415899
 
  0.0000000E+00  0.6667000E+00  0.6667000E+00  0.1000000E-02
   1      -63.085151
   2      -62.976120
   3      -62.975643
   4        1.576389
   5        2.680340
   6        4.773734
   7        4.819607
   8        4.819625
   9        5.070073
  10       20.694656
  11       22.047287
  12       22.047356
 
  0.0000000E+00  0.6667000E+00  0.7778000E+00  0.1000000E-02
   1      -63.090846
   2      -63.059400
   3      -63.024369
   4        1.037697
   5        2.944040
   6        3.897069
   7        4.410593
   8        4.914797
   9        4.985310
  10       20.176524
  11       23.761710
  12       24.140330
 
  0.0000000E+00  0.6667000E+00  0.8889000E+00  0.1000000E-02
   1      -63.097129
   2      -63.066413
   3      -63.064507
   4        0.716300
   5        3.328391
   6        3.785234
   7        3.989587
   8        4.862340
   9        4.938743
  10       17.555700
  11       26.346769
  12       27.343399
 
  0.0000000E+00  0.6667000E+00  0.1000000E+01  0.1000000E-02
   1      -63.094133
   2      -63.091947
   3      -63.091298
   4        0.904799
   5        3.774838
   6        3.793781
   7        3.793828
   8        4.868938
   9        4.869000
  10       15.578021
  11       28.926182
  12       29.525624
 
  0.0000000E+00  0.7778000E+00  0.0000000E+00  0.1000000E-02
   1      -63.117983
   2      -63.117285
   3      -63.105357
   4       -0.718465
   5        3.487380
   6        3.869601
   7        3.869647
   8        4.570201
   9        4.570229
  10       20.835789
  11       29.824851
  12       30.194407
 
  0.0000000E+00  0.7778000E+00  0.1111000E+00  0.1000000E-02
   1      -63.089348
   2      -63.059259
   3      -63.009776
   4        0.179771
   5        3.365432
   6        3.857461
   7        4.007973
   8        4.439453
   9        5.031957
  10       19.326928
  11       24.142343
  12       31.256317
 
  0.0000000E+00  0.7778000E+00  0.2222000E+00  0.1000000E-02
   1      -63.109689
   2      -63.049814
   3      -63.038731
   4        1.565975
   5        3.227533
   6        3.613670
   7        4.212981
   8        4.435643
   9        5.839764
  10       18.130512
  11       19.098550
  12       29.151272
 
  0.0000000E+00  0.7778000E+00  0.3333000E+00  0.1000000E-02
   1      -63.045630
   2      -63.037487
   3      -63.007097
   4        2.455146
   5        3.323764
   6        3.507642
   7        4.186381
   8        4.810475
   9        7.519553
  10       13.744691
  11       18.830485
  12       26.356225
 
  0.0000000E+00  0.7778000E+00  0.4444000E+00  0.1000000E-02
   1      -63.075074
   2      -63.042350
   3      -63.038176
   4        2.464262
   5        3.127647
   6        3.752789
   7        4.212754
   8        5.136208
   9        8.938498
  10       11.399247
  11       19.804978
  12       24.408069
 
  0.0000000E+00  0.7778000E+00  0.5556000E+00  0.1000000E-02
   1      -63.079834
   2      -63.043084
   3      -63.042351
   4        2.113228
   5        2.977426
   6        3.720696
   7        4.332452
   8        5.160509
   9        6.489194
  10       15.191282
  11       21.630786
  12       23.521905
 
  0.0000000E+00  0.7778000E+00  0.6667000E+00  0.1000000E-02
   1      -63.090846
   2      -63.059400
   3      -63.024369
   4        1.037696
   5        2.944041
   6        3.897066
   7        4.410594
   8        4.914799
   9        4.985310
  10       20.176522
  11       23.761711
  12       24.140332
 
  0.0000000E+00  0.7778000E+00  0.7778000E+00  0.1000000E-02
   1      -63.108299
   2      -63.025703
   3      -63.025202
   4       -0.183652
   5        3.125901
   6        4.139069
   7        4.255505
   8        4.255533
   9        4.853409
  10       25.041143
  11       25.041205
  12       26.398638
 
  0.0000000E+00  0.7778000E+00  0.8889000E+00  0.1000000E-02
   1      -63.088106
   2      -63.064050
   3      -63.032731
   4       -0.842830
   5        3.372309
   6        3.951415
   7        4.007992
   8        4.390081
   9        4.723080
  10       23.045946
  11       27.225394
  12       28.228274
 
  0.0000000E+00  0.7778000E+00  0.1000000E+01  0.1000000E-02
   1      -63.117983
   2      -63.117285
   3      -63.105357
   4       -0.718465
   5        3.487380
   6        3.869601
   7        3.869647
   8        4.570201
   9        4.570229
  10       20.835789
  11       29.824845
  12       30.194407
 
  0.0000000E+00  0.8889000E+00  0.0000000E+00  0.1000000E-02
   1      -63.099994
   2      -63.046326
   3      -63.045667
   4       -1.982008
   5        3.627835
   6        3.804898
   7        3.804933
   8        4.533605
   9        4.533607
  10       26.621422
  11       30.461410
  12       31.402006
 
  0.0000000E+00  0.8889000E+00  0.1111000E+00  0.1000000E-02
   1      -63.080512
   2      -63.074312
   3      -63.006865
   4       -1.259301
   5        3.488839
   6        3.896933
   7        3.929671
   8        4.371399
   9        4.709570
  10       24.691510
  11       25.453634
  12       32.298638
 
  0.0000000E+00  0.8889000E+00  0.2222000E+00  0.1000000E-02
   1      -63.089348
   2      -63.059259
   3      -63.009776
   4        0.179770
   5        3.365434
   6        3.857460
   7        4.007973
   8        4.439452
   9        5.031957
  10       19.326926
  11       24.142346
  12       31.256309
 
  0.0000000E+00  0.8889000E+00  0.3333000E+00  0.1000000E-02
   1      -63.109684
   2      -63.060504
   3      -63.040457
   4        1.587260
   5        3.672120
   6        3.749566
   7        3.882180
   8        4.821094
   9        5.697130
  10       14.328528
  11       23.906212
  12       29.341261
 
  0.0000000E+00  0.8889000E+00  0.4444000E+00  0.1000000E-02
   1      -63.089556
   2      -63.063738
   3      -62.977959
   4        1.992088
   5        3.555988
   6        3.818022
   7        4.337279
   8        5.115882
   9        7.102269
  10       10.931290
  11       24.503690
  12       27.446583
 
  0.0000000E+00  0.8889000E+00  0.5556000E+00  0.1000000E-02
   1      -63.106974
   2      -63.077926
   3      -63.048563
   4        1.802261
   5        3.579447
   6        3.868839
   7        3.957855
   8        5.125077
   9        6.019699
  10       12.890646
  11       25.869304
  12       26.382600
 
  0.0000000E+00  0.8889000E+00  0.6667000E+00  0.1000000E-02
   1      -63.097128
   2      -63.066414
   3      -63.064507
   4        0.716299
   5        3.328393
   6        3.785232
   7        3.989587
   8        4.862342
   9        4.938743
  10       17.555698
  11       26.346770
  12       27.343398
 
  0.0000000E+00  0.8889000E+00  0.7778000E+00  0.1000000E-02
   1      -63.088106
   2      -63.064050
   3      -63.032731
   4       -0.842830
   5        3.372311
   6        3.951413
   7        4.007992
   8        4.390082
   9        4.723080
  10       23.045944
  11       27.225394
  12       28.228272
 
  0.0000000E+00  0.8889000E+00  0.8889000E+00  0.1000000E-02
   1      -63.116040
   2      -63.025390
   3      -63.024892
   4       -1.834139
   5        3.545359
   6        3.851734
   7        3.851761
   8        4.409149
   9        4.686262
  10       28.259974
  11       28.929619
  12       28.929678
 
  0.0000000E+00  0.8889000E+00  0.1000000E+01  0.1000000E-02
   1      -63.099994
   2      -63.046326
   3      -63.045667
   4       -1.982008
   5        3.627835
   6        3.804898
   7        3.804933
   8        4.533605
   9        4.533607
  10       26.621422
  11       30.461407
  12       31.401994
 
  0.0000000E+00  0.1000000E+01  0.0000000E+00  0.1000000E-02
   1      -62.986519
   2      -62.985799
   3      -62.985798
   4       -2.428972
   5        3.734496
   6        3.734529
   7        3.734531
   8        4.621443
   9        4.621443
  10       29.789250
  11       32.482336
  12       32.482391
 
  0.0000000E+00  0.1000000E+01  0.1111000E+00  0.1000000E-02
   1      -63.099994
   2      -63.046326
   3      -63.045668
   4       -1.982008
   5        3.627837
   6        3.804898
   7        3.804931
   8        4.533606
   9        4.533607
  10       26.621420
  11       30.461408
  12       31.402041
 
  0.0000000E+00  0.1000000E+01  0.2222000E+00  0.1000000E-02
   1      -63.117983
   2      -63.117285
   3      -63.105356
   4       -0.718466
   5        3.487382
   6        3.869601
   7        3.869645
   8        4.570200
   9        4.570230
  10       20.835787
  11       29.824865
  12       30.194401
 
  0.0000000E+00  0.1000000E+01  0.3333000E+00  0.1000000E-02
   1      -63.094132
   2      -63.091946
   3      -63.091299
   4        0.904798
   5        3.774842
   6        3.793782
   7        3.793826
   8        4.868937
   9        4.869000
  10       15.578019
  11       28.926176
  12       29.525612
 
  0.0000000E+00  0.1000000E+01  0.4444000E+00  0.1000000E-02
   1      -63.114854
   2      -63.110835
   3      -63.110168
   4        1.676541
   5        3.692424
   6        3.692468