Automatically generated mesh
       4
Reciprocal lattice
    0.00000000000000    0.00000000000000    0.00000000000000             1
    0.33333333333333    0.00000000000000    0.00000000000000             8
    0.33333333333333    0.33333333333333    0.00000000000000             6
   -0.33333333333333    0.33333333333333    0.00000000000000            12
Tetrahedra
         7    0.00617283950617
        24         1         2         2         3
        48         2         3         4         4
        24         2         2         4         4
        24         2         2         3         4
        12         3         3         4         4
        24         3         4         4         4
         6         4         4         4         4
