       N       E                     dE             d eps       ncg     rms          rms(c)
DAV:   1     0.817897243702E+02    0.81790E+02   -0.93808E+03 26504   0.141E+03
DAV:   2    -0.430071683208E+01   -0.86090E+02   -0.82318E+02 25080   0.350E+02
DAV:   3    -0.544650837598E+01   -0.11458E+01   -0.11421E+01 26776   0.461E+01
DAV:   4    -0.545442092028E+01   -0.79125E-02   -0.79121E-02 26488   0.365E+00
DAV:   5    -0.545456011497E+01   -0.13919E-03   -0.13919E-03 26232   0.475E-01    0.921E+00
DAV:   6    -0.486477940268E+01    0.58978E+00   -0.80671E+00 24316   0.593E+01    0.560E+00
DAV:   7    -0.438568593674E+01    0.47909E+00   -0.13760E+00 24676   0.236E+01    0.323E-01
DAV:   8    -0.438539958748E+01    0.28635E-03   -0.21435E-02 28320   0.246E+00    0.350E-01
DAV:   9    -0.438379819621E+01    0.16014E-02   -0.42418E-03 26936   0.129E+00    0.343E-02
DAV:  10    -0.438378538467E+01    0.12812E-04   -0.44880E-05 13708   0.104E-01
   1 F= -.43837854E+01 E0= -.43823106E+01  d E =-.294954E-02
