<?xml version="1.0" encoding="ISO-8859-1"?>
<modeling>
 <generator>
  <i name="program" type="string">vasp </i>
  <i name="version" type="string">5.2.12  </i>
  <i name="subversion" type="string">11Nov11 complex                                                      parallel </i>
  <i name="platform" type="string">LinuxIFC </i>
  <i name="date" type="string">2020 04 25 </i>
  <i name="time" type="string">11:19:07 </i>
 </generator>
 <incar>
  <i type="int" name="ISTART">     0</i>
  <i type="string" name="PREC">normal</i>
  <i type="int" name="ICHARG">     2</i>
  <i type="int" name="NELM">    40</i>
  <i type="int" name="NELMIN">     2</i>
  <i name="EDIFF">      0.00010000</i>
  <i name="ENCUT">    300.00000000</i>
  <i type="logical" name="LREAL"> F  </i>
  <i type="int" name="ISMEAR">     0</i>
  <i type="int" name="NELM">    40</i>
 </incar>
 <kpoints>
  <varray name="kpointlist" >
   <v>       0.00000000       0.00000000       0.00000000 </v>
   <v>       0.00000000       0.00000000       0.11110000 </v>
   <v>       0.00000000       0.00000000       0.22220000 </v>
   <v>       0.00000000       0.00000000       0.33330000 </v>
   <v>       0.00000000       0.00000000       0.44440000 </v>
   <v>       0.00000000       0.00000000       0.55560000 </v>
   <v>       0.00000000       0.00000000       0.66670000 </v>
   <v>       0.00000000       0.00000000       0.77780000 </v>
   <v>       0.00000000       0.00000000       0.88890000 </v>
   <v>       0.00000000       0.00000000       1.00000000 </v>
   <v>       0.00000000       0.11110000       0.00000000 </v>
   <v>       0.00000000       0.11110000       0.11110000 </v>
   <v>       0.00000000       0.11110000       0.22220000 </v>
   <v>       0.00000000       0.11110000       0.33330000 </v>
   <v>       0.00000000       0.11110000       0.44440000 </v>
   <v>       0.00000000       0.11110000       0.55560000 </v>
   <v>       0.00000000       0.11110000       0.66670000 </v>
   <v>       0.00000000       0.11110000       0.77780000 </v>
   <v>       0.00000000       0.11110000       0.88890000 </v>
   <v>       0.00000000       0.11110000       1.00000000 </v>
   <v>       0.00000000       0.22220000       0.00000000 </v>
   <v>       0.00000000       0.22220000       0.11110000 </v>
   <v>       0.00000000       0.22220000       0.22220000 </v>
   <v>       0.00000000       0.22220000       0.33330000 </v>
   <v>       0.00000000       0.22220000       0.44440000 </v>
   <v>       0.00000000       0.22220000       0.55560000 </v>
   <v>       0.00000000       0.22220000       0.66670000 </v>
   <v>       0.00000000       0.22220000       0.77780000 </v>
   <v>       0.00000000       0.22220000       0.88890000 </v>
   <v>       0.00000000       0.22220000       1.00000000 </v>
   <v>       0.00000000       0.33330000       0.00000000 </v>
   <v>       0.00000000       0.33330000       0.11110000 </v>
   <v>       0.00000000       0.33330000       0.22220000 </v>
   <v>       0.00000000       0.33330000       0.33330000 </v>
   <v>       0.00000000       0.33330000       0.44440000 </v>
   <v>       0.00000000       0.33330000       0.55560000 </v>
   <v>       0.00000000       0.33330000       0.66670000 </v>
   <v>       0.00000000       0.33330000       0.77780000 </v>
   <v>       0.00000000       0.33330000       0.88890000 </v>
   <v>       0.00000000       0.33330000       1.00000000 </v>
   <v>       0.00000000       0.44440000       0.00000000 </v>
   <v>       0.00000000       0.44440000       0.11110000 </v>
   <v>       0.00000000       0.44440000       0.22220000 </v>
   <v>       0.00000000       0.44440000       0.33330000 </v>
   <v>       0.00000000       0.44440000       0.44440000 </v>
   <v>       0.00000000       0.44440000       0.55560000 </v>
   <v>       0.00000000       0.44440000       0.66670000 </v>
   <v>       0.00000000       0.44440000       0.77780000 </v>
   <v>       0.00000000       0.44440000       0.88890000 </v>
   <v>       0.00000000       0.44440000       1.00000000 </v>
   <v>       0.00000000       0.55560000       0.00000000 </v>
   <v>       0.00000000       0.55560000       0.11110000 </v>
   <v>       0.00000000       0.55560000       0.22220000 </v>
   <v>       0.00000000       0.55560000       0.33330000 </v>
   <v>       0.00000000       0.55560000       0.44440000 </v>
   <v>       0.00000000       0.55560000       0.55560000 </v>
   <v>       0.00000000       0.55560000       0.66670000 </v>
   <v>       0.00000000       0.55560000       0.77780000 </v>
   <v>       0.00000000       0.55560000       0.88890000 </v>
   <v>       0.00000000       0.55560000       1.00000000 </v>
   <v>       0.00000000       0.66670000       0.00000000 </v>
   <v>       0.00000000       0.66670000       0.11110000 </v>
   <v>       0.00000000       0.66670000       0.22220000 </v>
   <v>       0.00000000       0.66670000       0.33330000 </v>
   <v>       0.00000000       0.66670000       0.44440000 </v>
   <v>       0.00000000       0.66670000       0.55560000 </v>
   <v>       0.00000000       0.66670000       0.66670000 </v>
   <v>       0.00000000       0.66670000       0.77780000 </v>
   <v>       0.00000000       0.66670000       0.88890000 </v>
   <v>       0.00000000       0.66670000       1.00000000 </v>
   <v>       0.00000000       0.77780000       0.00000000 </v>
   <v>       0.00000000       0.77780000       0.11110000 </v>
   <v>       0.00000000       0.77780000       0.22220000 </v>
   <v>       0.00000000       0.77780000       0.33330000 </v>
   <v>       0.00000000       0.77780000       0.44440000 </v>
   <v>       0.00000000       0.77780000       0.55560000 </v>
   <v>       0.00000000       0.77780000       0.66670000 </v>
   <v>       0.00000000       0.77780000       0.77780000 </v>
   <v>       0.00000000       0.77780000       0.88890000 </v>
   <v>       0.00000000       0.77780000       1.00000000 </v>
   <v>       0.00000000       0.88890000       0.00000000 </v>
   <v>       0.00000000       0.88890000       0.11110000 </v>
   <v>       0.00000000       0.88890000       0.22220000 </v>
   <v>       0.00000000       0.88890000       0.33330000 </v>
   <v>       0.00000000       0.88890000       0.44440000 </v>
   <v>       0.00000000       0.88890000       0.55560000 </v>
   <v>       0.00000000       0.88890000       0.66670000 </v>
   <v>       0.00000000       0.88890000       0.77780000 </v>
   <v>       0.00000000       0.88890000       0.88890000 </v>
   <v>       0.00000000       0.88890000       1.00000000 </v>
   <v>       0.00000000       1.00000000       0.00000000 </v>
   <v>       0.00000000       1.00000000       0.11110000 </v>
   <v>       0.00000000       1.00000000       0.22220000 </v>
   <v>       0.00000000       1.00000000       0.33330000 </v>
   <v>       0.00000000       1.00000000       0.44440000 </v>
   <v>       0.00000000       1.00000000       0.55560000 </v>
   <v>       0.00000000       1.00000000       0.66670000 </v>
   <v>       0.00000000       1.00000000       0.77780000 </v>
   <v>       0.00000000       1.00000000       0.88890000 </v>
   <v>       0.00000000       1.00000000       1.00000000 </v>
   <v>       0.11110000       0.00000000       0.00000000 </v>
   <v>       0.11110000       0.00000000       0.11110000 </v>
   <v>       0.11110000       0.00000000       0.22220000 </v>
   <v>       0.11110000       0.00000000       0.33330000 </v>
   <v>       0.11110000       0.00000000       0.44440000 </v>
   <v>       0.11110000       0.00000000       0.55560000 </v>
   <v>       0.11110000       0.00000000       0.66670000 </v>
   <v>       0.11110000       0.00000000       0.77780000 </v>
   <v>       0.11110000       0.00000000       0.88890000 </v>
   <v>       0.11110000       0.00000000       1.00000000 </v>
   <v>       0.11110000       0.11110000       0.00000000 </v>
   <v>       0.11110000       0.11110000       0.11110000 </v>
   <v>       0.11110000       0.11110000       0.22220000 </v>
   <v>       0.11110000       0.11110000       0.33330000 </v>
   <v>       0.11110000       0.11110000       0.44440000 </v>
   <v>       0.11110000       0.11110000       0.55560000 </v>
   <v>       0.11110000       0.11110000       0.66670000 </v>
   <v>       0.11110000       0.11110000       0.77780000 </v>
   <v>       0.11110000       0.11110000       0.88890000 </v>
   <v>       0.11110000       0.11110000       1.00000000 </v>
   <v>       0.11110000       0.22220000       0.00000000 </v>
   <v>       0.11110000       0.22220000       0.11110000 </v>
   <v>       0.11110000       0.22220000       0.22220000 </v>
   <v>       0.11110000       0.22220000       0.33330000 </v>
   <v>       0.11110000       0.22220000       0.44440000 </v>
   <v>       0.11110000       0.22220000       0.55560000 </v>
   <v>       0.11110000       0.22220000       0.66670000 </v>
   <v>       0.11110000       0.22220000       0.77780000 </v>
   <v>       0.11110000       0.22220000       0.88890000 </v>
   <v>       0.11110000       0.22220000       1.00000000 </v>
   <v>       0.11110000       0.33330000       0.00000000 </v>
   <v>       0.11110000       0.33330000       0.11110000 </v>
   <v>       0.11110000       0.33330000       0.22220000 </v>
   <v>       0.11110000       0.33330000       0.33330000 </v>
   <v>       0.11110000       0.33330000       0.44440000 </v>
   <v>       0.11110000       0.33330000       0.55560000 </v>
   <v>       0.11110000       0.33330000       0.66670000 </v>
   <v>       0.11110000       0.33330000       0.77780000 </v>
   <v>       0.11110000       0.33330000       0.88890000 </v>
   <v>       0.11110000       0.33330000       1.00000000 </v>
   <v>       0.11110000       0.44440000       0.00000000 </v>
   <v>       0.11110000       0.44440000       0.11110000 </v>
   <v>       0.11110000       0.44440000       0.22220000 </v>
   <v>       0.11110000       0.44440000       0.33330000 </v>
   <v>       0.11110000       0.44440000       0.44440000 </v>
   <v>       0.11110000       0.44440000       0.55560000 </v>
   <v>       0.11110000       0.44440000       0.66670000 </v>
   <v>       0.11110000       0.44440000       0.77780000 </v>
   <v>       0.11110000       0.44440000       0.88890000 </v>
   <v>       0.11110000       0.44440000       1.00000000 </v>
   <v>       0.11110000       0.55560000       0.00000000 </v>
   <v>       0.11110000       0.55560000       0.11110000 </v>
   <v>       0.11110000       0.55560000       0.22220000 </v>
   <v>       0.11110000       0.55560000       0.33330000 </v>
   <v>       0.11110000       0.55560000       0.44440000 </v>
   <v>       0.11110000       0.55560000       0.55560000 </v>
   <v>       0.11110000       0.55560000       0.66670000 </v>
   <v>       0.11110000       0.55560000       0.77780000 </v>
   <v>       0.11110000       0.55560000       0.88890000 </v>
   <v>       0.11110000       0.55560000       1.00000000 </v>
   <v>       0.11110000       0.66670000       0.00000000 </v>
   <v>       0.11110000       0.66670000       0.11110000 </v>
   <v>       0.11110000       0.66670000       0.22220000 </v>
   <v>       0.11110000       0.66670000       0.33330000 </v>
   <v>       0.11110000       0.66670000       0.44440000 </v>
   <v>       0.11110000       0.66670000       0.55560000 </v>
   <v>       0.11110000       0.66670000       0.66670000 </v>
   <v>       0.11110000       0.66670000       0.77780000 </v>
   <v>       0.11110000       0.66670000       0.88890000 </v>
   <v>       0.11110000       0.66670000       1.00000000 </v>
   <v>       0.11110000       0.77780000       0.00000000 </v>
   <v>       0.11110000       0.77780000       0.11110000 </v>
   <v>       0.11110000       0.77780000       0.22220000 </v>
   <v>       0.11110000       0.77780000       0.33330000 </v>
   <v>       0.11110000       0.77780000       0.44440000 </v>
   <v>       0.11110000       0.77780000       0.55560000 </v>
   <v>       0.11110000       0.77780000       0.66670000 </v>
   <v>       0.11110000       0.77780000       0.77780000 </v>
   <v>       0.11110000       0.77780000       0.88890000 </v>
   <v>       0.11110000       0.77780000       1.00000000 </v>
   <v>       0.11110000       0.88890000       0.00000000 </v>
   <v>       0.11110000       0.88890000       0.11110000 </v>
   <v>       0.11110000       0.88890000       0.22220000 </v>
   <v>       0.11110000       0.88890000       0.33330000 </v>
   <v>       0.11110000       0.88890000       0.44440000 </v>
   <v>       0.11110000       0.88890000       0.55560000 </v>
   <v>       0.11110000       0.88890000       0.66670000 </v>
   <v>       0.11110000       0.88890000       0.77780000 </v>
   <v>       0.11110000       0.88890000       0.88890000 </v>
   <v>       0.11110000       0.88890000       1.00000000 </v>
   <v>       0.11110000       1.00000000       0.00000000 </v>
   <v>       0.11110000       1.00000000       0.11110000 </v>
   <v>       0.11110000       1.00000000       0.22220000 </v>
   <v>       0.11110000       1.00000000       0.33330000 </v>
   <v>       0.11110000       1.00000000       0.44440000 </v>
   <v>       0.11110000       1.00000000       0.55560000 </v>
   <v>       0.11110000       1.00000000       0.66670000 </v>
   <v>       0.11110000       1.00000000       0.77780000 </v>
   <v>       0.11110000       1.00000000       0.88890000 </v>
   <v>       0.11110000       1.00000000       1.00000000 </v>
   <v>       0.22220000       0.00000000       0.00000000 </v>
   <v>       0.22220000       0.00000000       0.11110000 </v>
   <v>       0.22220000       0.00000000       0.22220000 </v>
   <v>       0.22220000       0.00000000       0.33330000 </v>
   <v>       0.22220000       0.00000000       0.44440000 </v>
   <v>       0.22220000       0.00000000       0.55560000 </v>
   <v>       0.22220000       0.00000000       0.66670000 </v>
   <v>       0.22220000       0.00000000       0.77780000 </v>
   <v>       0.22220000       0.00000000       0.88890000 </v>
   <v>       0.22220000       0.00000000       1.00000000 </v>
   <v>       0.22220000       0.11110000       0.00000000 </v>
   <v>       0.22220000       0.11110000       0.11110000 </v>
   <v>       0.22220000       0.11110000       0.22220000 </v>
   <v>       0.22220000       0.11110000       0.33330000 </v>
   <v>       0.22220000       0.11110000       0.44440000 </v>
   <v>       0.22220000       0.11110000       0.55560000 </v>
   <v>       0.22220000       0.11110000       0.66670000 </v>
   <v>       0.22220000       0.11110000       0.77780000 </v>
   <v>       0.22220000       0.11110000       0.88890000 </v>
   <v>       0.22220000       0.11110000       1.00000000 </v>
   <v>       0.22220000       0.22220000       0.00000000 </v>
   <v>       0.22220000       0.22220000       0.11110000 </v>
   <v>       0.22220000       0.22220000       0.22220000 </v>
   <v>       0.22220000       0.22220000       0.33330000 </v>
   <v>       0.22220000       0.22220000       0.44440000 </v>
   <v>       0.22220000       0.22220000       0.55560000 </v>
   <v>       0.22220000       0.22220000       0.66670000 </v>
   <v>       0.22220000       0.22220000       0.77780000 </v>
   <v>       0.22220000       0.22220000       0.88890000 </v>
   <v>       0.22220000       0.22220000       1.00000000 </v>
   <v>       0.22220000       0.33330000       0.00000000 </v>
   <v>       0.22220000       0.33330000       0.11110000 </v>
   <v>       0.22220000       0.33330000       0.22220000 </v>
   <v>       0.22220000       0.33330000       0.33330000 </v>
   <v>       0.22220000       0.33330000       0.44440000 </v>
   <v>       0.22220000       0.33330000       0.55560000 </v>
   <v>       0.22220000       0.33330000       0.66670000 </v>
   <v>       0.22220000       0.33330000       0.77780000 </v>
   <v>       0.22220000       0.33330000       0.88890000 </v>
   <v>       0.22220000       0.33330000       1.00000000 </v>
   <v>       0.22220000       0.44440000       0.00000000 </v>
   <v>       0.22220000       0.44440000       0.11110000 </v>
   <v>       0.22220000       0.44440000       0.22220000 </v>
   <v>       0.22220000       0.44440000       0.33330000 </v>
   <v>       0.22220000       0.44440000       0.44440000 </v>
   <v>       0.22220000       0.44440000       0.55560000 </v>
   <v>       0.22220000       0.44440000       0.66670000 </v>
   <v>       0.22220000       0.44440000       0.77780000 </v>
   <v>       0.22220000       0.44440000       0.88890000 </v>
   <v>       0.22220000       0.44440000       1.00000000 </v>
   <v>       0.22220000       0.55560000       0.00000000 </v>
   <v>       0.22220000       0.55560000       0.11110000 </v>
   <v>       0.22220000       0.55560000       0.22220000 </v>
   <v>       0.22220000       0.55560000       0.33330000 </v>
   <v>       0.22220000       0.55560000       0.44440000 </v>
   <v>       0.22220000       0.55560000       0.55560000 </v>
   <v>       0.22220000       0.55560000       0.66670000 </v>
   <v>       0.22220000       0.55560000       0.77780000 </v>
   <v>       0.22220000       0.55560000       0.88890000 </v>
   <v>       0.22220000       0.55560000       1.00000000 </v>
   <v>       0.22220000       0.66670000       0.00000000 </v>
   <v>       0.22220000       0.66670000       0.11110000 </v>
   <v>       0.22220000       0.66670000       0.22220000 </v>
   <v>       0.22220000       0.66670000       0.33330000 </v>
   <v>       0.22220000       0.66670000       0.44440000 </v>
   <v>       0.22220000       0.66670000       0.55560000 </v>
   <v>       0.22220000       0.66670000       0.66670000 </v>
   <v>       0.22220000       0.66670000       0.77780000 </v>
   <v>       0.22220000       0.66670000       0.88890000 </v>
   <v>       0.22220000       0.66670000       1.00000000 </v>
   <v>       0.22220000       0.77780000       0.00000000 </v>
   <v>       0.22220000       0.77780000       0.11110000 </v>
   <v>       0.22220000       0.77780000       0.22220000 </v>
   <v>       0.22220000       0.77780000       0.33330000 </v>
   <v>       0.22220000       0.77780000       0.44440000 </v>
   <v>       0.22220000       0.77780000       0.55560000 </v>
   <v>       0.22220000       0.77780000       0.66670000 </v>
   <v>       0.22220000       0.77780000       0.77780000 </v>
   <v>       0.22220000       0.77780000       0.88890000 </v>
   <v>       0.22220000       0.77780000       1.00000000 </v>
   <v>       0.22220000       0.88890000       0.00000000 </v>
   <v>       0.22220000       0.88890000       0.11110000 </v>
   <v>       0.22220000       0.88890000       0.22220000 </v>
   <v>       0.22220000       0.88890000       0.33330000 </v>
   <v>       0.22220000       0.88890000       0.44440000 </v>
   <v>       0.22220000       0.88890000       0.55560000 </v>
   <v>       0.22220000       0.88890000       0.66670000 </v>
   <v>       0.22220000       0.88890000       0.77780000 </v>
   <v>       0.22220000       0.88890000       0.88890000 </v>
   <v>       0.22220000       0.88890000       1.00000000 </v>
   <v>       0.22220000       1.00000000       0.00000000 </v>
   <v>       0.22220000       1.00000000       0.11110000 </v>
   <v>       0.22220000       1.00000000       0.22220000 </v>
   <v>       0.22220000       1.00000000       0.33330000 </v>
   <v>       0.22220000       1.00000000       0.44440000 </v>
   <v>       0.22220000       1.00000000       0.55560000 </v>
   <v>       0.22220000       1.00000000       0.66670000 </v>
   <v>       0.22220000       1.00000000       0.77780000 </v>
   <v>       0.22220000       1.00000000       0.88890000 </v>
   <v>       0.22220000       1.00000000       1.00000000 </v>
   <v>       0.33330000       0.00000000       0.00000000 </v>
   <v>       0.33330000       0.00000000       0.11110000 </v>
   <v>       0.33330000       0.00000000       0.22220000 </v>
   <v>       0.33330000       0.00000000       0.33330000 </v>
   <v>       0.33330000       0.00000000       0.44440000 </v>
   <v>       0.33330000       0.00000000       0.55560000 </v>
   <v>       0.33330000       0.00000000       0.66670000 </v>
   <v>       0.33330000       0.00000000       0.77780000 </v>
   <v>       0.33330000       0.00000000       0.88890000 </v>
   <v>       0.33330000       0.00000000       1.00000000 </v>
   <v>       0.33330000       0.11110000       0.00000000 </v>
   <v>       0.33330000       0.11110000       0.11110000 </v>
   <v>       0.33330000       0.11110000       0.22220000 </v>
   <v>       0.33330000       0.11110000       0.33330000 </v>
   <v>       0.33330000       0.11110000       0.44440000 </v>
   <v>       0.33330000       0.11110000       0.55560000 </v>
   <v>       0.33330000       0.11110000       0.66670000 </v>
   <v>       0.33330000       0.11110000       0.77780000 </v>
   <v>       0.33330000       0.11110000       0.88890000 </v>
   <v>       0.33330000       0.11110000       1.00000000 </v>
   <v>       0.33330000       0.22220000       0.00000000 </v>
   <v>       0.33330000       0.22220000       0.11110000 </v>
   <v>       0.33330000       0.22220000       0.22220000 </v>
   <v>       0.33330000       0.22220000       0.33330000 </v>
   <v>       0.33330000       0.22220000       0.44440000 </v>
   <v>       0.33330000       0.22220000       0.55560000 </v>
   <v>       0.33330000       0.22220000       0.66670000 </v>
   <v>       0.33330000       0.22220000       0.77780000 </v>
   <v>       0.33330000       0.22220000       0.88890000 </v>
   <v>       0.33330000       0.22220000       1.00000000 </v>
   <v>       0.33330000       0.33330000       0.00000000 </v>
   <v>       0.33330000       0.33330000       0.11110000 </v>
   <v>       0.33330000       0.33330000       0.22220000 </v>
   <v>       0.33330000       0.33330000       0.33330000 </v>
   <v>       0.33330000       0.33330000       0.44440000 </v>
   <v>       0.33330000       0.33330000       0.55560000 </v>
   <v>       0.33330000       0.33330000       0.66670000 </v>
   <v>       0.33330000       0.33330000       0.77780000 </v>
   <v>       0.33330000       0.33330000       0.88890000 </v>
   <v>       0.33330000       0.33330000       1.00000000 </v>
   <v>       0.33330000       0.44440000       0.00000000 </v>
   <v>       0.33330000       0.44440000       0.11110000 </v>
   <v>       0.33330000       0.44440000       0.22220000 </v>
   <v>       0.33330000       0.44440000       0.33330000 </v>
   <v>       0.33330000       0.44440000       0.44440000 </v>
   <v>       0.33330000       0.44440000       0.55560000 </v>
   <v>       0.33330000       0.44440000       0.66670000 </v>
   <v>       0.33330000       0.44440000       0.77780000 </v>
   <v>       0.33330000       0.44440000       0.88890000 </v>
   <v>       0.33330000       0.44440000       1.00000000 </v>
   <v>       0.33330000       0.55560000       0.00000000 </v>
   <v>       0.33330000       0.55560000       0.11110000 </v>
   <v>       0.33330000       0.55560000       0.22220000 </v>
   <v>       0.33330000       0.55560000       0.33330000 </v>
   <v>       0.33330000       0.55560000       0.44440000 </v>
   <v>       0.33330000       0.55560000       0.55560000 </v>
   <v>       0.33330000       0.55560000       0.66670000 </v>
   <v>       0.33330000       0.55560000       0.77780000 </v>
   <v>       0.33330000       0.55560000       0.88890000 </v>
   <v>       0.33330000       0.55560000       1.00000000 </v>
   <v>       0.33330000       0.66670000       0.00000000 </v>
   <v>       0.33330000       0.66670000       0.11110000 </v>
   <v>       0.33330000       0.66670000       0.22220000 </v>
   <v>       0.33330000       0.66670000       0.33330000 </v>
   <v>       0.33330000       0.66670000       0.44440000 </v>
   <v>       0.33330000       0.66670000       0.55560000 </v>
   <v>       0.33330000       0.66670000       0.66670000 </v>
   <v>       0.33330000       0.66670000       0.77780000 </v>
   <v>       0.33330000       0.66670000       0.88890000 </v>
   <v>       0.33330000       0.66670000       1.00000000 </v>
   <v>       0.33330000       0.77780000       0.00000000 </v>
   <v>       0.33330000       0.77780000       0.11110000 </v>
   <v>       0.33330000       0.77780000       0.22220000 </v>
   <v>       0.33330000       0.77780000       0.33330000 </v>
   <v>       0.33330000       0.77780000       0.44440000 </v>
   <v>       0.33330000       0.77780000       0.55560000 </v>
   <v>       0.33330000       0.77780000       0.66670000 </v>
   <v>       0.33330000       0.77780000       0.77780000 </v>
   <v>       0.33330000       0.77780000       0.88890000 </v>
   <v>       0.33330000       0.77780000       1.00000000 </v>
   <v>       0.33330000       0.88890000       0.00000000 </v>
   <v>       0.33330000       0.88890000       0.11110000 </v>
   <v>       0.33330000       0.88890000       0.22220000 </v>
   <v>       0.33330000       0.88890000       0.33330000 </v>
   <v>       0.33330000       0.88890000       0.44440000 </v>
   <v>       0.33330000       0.88890000       0.55560000 </v>
   <v>       0.33330000       0.88890000       0.66670000 </v>
   <v>       0.33330000       0.88890000       0.77780000 </v>
   <v>       0.33330000       0.88890000       0.88890000 </v>
   <v>       0.33330000       0.88890000       1.00000000 </v>
   <v>       0.33330000       1.00000000       0.00000000 </v>
   <v>       0.33330000       1.00000000       0.11110000 </v>
   <v>       0.33330000       1.00000000       0.22220000 </v>
   <v>       0.33330000       1.00000000       0.33330000 </v>
   <v>       0.33330000       1.00000000       0.44440000 </v>
   <v>       0.33330000       1.00000000       0.55560000 </v>
   <v>       0.33330000       1.00000000       0.66670000 </v>
   <v>       0.33330000       1.00000000       0.77780000 </v>
   <v>       0.33330000       1.00000000       0.88890000 </v>
   <v>       0.33330000       1.00000000       1.00000000 </v>
   <v>       0.44440000       0.00000000       0.00000000 </v>
   <v>       0.44440000       0.00000000       0.11110000 </v>
   <v>       0.44440000       0.00000000       0.22220000 </v>
   <v>       0.44440000       0.00000000       0.33330000 </v>
   <v>       0.44440000       0.00000000       0.44440000 </v>
   <v>       0.44440000       0.00000000       0.55560000 </v>
   <v>       0.44440000       0.00000000       0.66670000 </v>
   <v>       0.44440000       0.00000000       0.77780000 </v>
   <v>       0.44440000       0.00000000       0.88890000 </v>
   <v>       0.44440000       0.00000000       1.00000000 </v>
   <v>       0.44440000       0.11110000       0.00000000 </v>
   <v>       0.44440000       0.11110000       0.11110000 </v>
   <v>       0.44440000       0.11110000       0.22220000 </v>
   <v>       0.44440000       0.11110000       0.33330000 </v>
   <v>       0.44440000       0.11110000       0.44440000 </v>
   <v>       0.44440000       0.11110000       0.55560000 </v>
   <v>       0.44440000       0.11110000       0.66670000 </v>
   <v>       0.44440000       0.11110000       0.77780000 </v>
   <v>       0.44440000       0.11110000       0.88890000 </v>
   <v>       0.44440000       0.11110000       1.00000000 </v>
   <v>       0.44440000       0.22220000       0.00000000 </v>
   <v>       0.44440000       0.22220000       0.11110000 </v>
   <v>       0.44440000       0.22220000       0.22220000 </v>
   <v>       0.44440000       0.22220000       0.33330000 </v>
   <v>       0.44440000       0.22220000       0.44440000 </v>
   <v>       0.44440000       0.22220000       0.55560000 </v>
   <v>       0.44440000       0.22220000       0.66670000 </v>
   <v>       0.44440000       0.22220000       0.77780000 </v>
   <v>       0.44440000       0.22220000       0.88890000 </v>
   <v>       0.44440000       0.22220000       1.00000000 </v>
   <v>       0.44440000       0.33330000       0.00000000 </v>
   <v>       0.44440000       0.33330000       0.11110000 </v>
   <v>       0.44440000       0.33330000       0.22220000 </v>
   <v>       0.44440000       0.33330000       0.33330000 </v>
   <v>       0.44440000       0.33330000       0.44440000 </v>
   <v>       0.44440000       0.33330000       0.55560000 </v>
   <v>       0.44440000       0.33330000       0.66670000 </v>
   <v>       0.44440000       0.33330000       0.77780000 </v>
   <v>       0.44440000       0.33330000       0.88890000 </v>
   <v>       0.44440000       0.33330000       1.00000000 </v>
   <v>       0.44440000       0.44440000       0.00000000 </v>
   <v>       0.44440000       0.44440000       0.11110000 </v>
   <v>       0.44440000       0.44440000       0.22220000 </v>
   <v>       0.44440000       0.44440000       0.33330000 </v>
   <v>       0.44440000       0.44440000       0.44440000 </v>
   <v>       0.44440000       0.44440000       0.55560000 </v>
   <v>       0.44440000       0.44440000       0.66670000 </v>
   <v>       0.44440000       0.44440000       0.77780000 </v>
   <v>       0.44440000       0.44440000       0.88890000 </v>
   <v>       0.44440000       0.44440000       1.00000000 </v>
   <v>       0.44440000       0.55560000       0.00000000 </v>
   <v>       0.44440000       0.55560000       0.11110000 </v>
   <v>       0.44440000       0.55560000       0.22220000 </v>
   <v>       0.44440000       0.55560000       0.33330000 </v>
   <v>       0.44440000       0.55560000       0.44440000 </v>
   <v>       0.44440000       0.55560000       0.55560000 </v>
   <v>       0.44440000       0.55560000       0.66670000 </v>
   <v>       0.44440000       0.55560000       0.77780000 </v>
   <v>       0.44440000       0.55560000       0.88890000 </v>
   <v>       0.44440000       0.55560000       1.00000000 </v>
   <v>       0.44440000       0.66670000       0.00000000 </v>
   <v>       0.44440000       0.66670000       0.11110000 </v>
   <v>       0.44440000       0.66670000       0.22220000 </v>
   <v>       0.44440000       0.66670000       0.33330000 </v>
   <v>       0.44440000       0.66670000       0.44440000 </v>
   <v>       0.44440000       0.66670000       0.55560000 </v>
   <v>       0.44440000       0.66670000       0.66670000 </v>
   <v>       0.44440000       0.66670000       0.77780000 </v>
   <v>       0.44440000       0.66670000       0.88890000 </v>
   <v>       0.44440000       0.66670000       1.00000000 </v>
   <v>       0.44440000       0.77780000       0.00000000 </v>
   <v>       0.44440000       0.77780000       0.11110000 </v>
   <v>       0.44440000       0.77780000       0.22220000 </v>
   <v>       0.44440000       0.77780000       0.33330000 </v>
   <v>       0.44440000       0.77780000       0.44440000 </v>
   <v>       0.44440000       0.77780000       0.55560000 </v>
   <v>       0.44440000       0.77780000       0.66670000 </v>
   <v>       0.44440000       0.77780000       0.77780000 </v>
   <v>       0.44440000       0.77780000       0.88890000 </v>
   <v>       0.44440000       0.77780000       1.00000000 </v>
   <v>       0.44440000       0.88890000       0.00000000 </v>
   <v>       0.44440000       0.88890000       0.11110000 </v>
   <v>       0.44440000       0.88890000       0.22220000 </v>
   <v>       0.44440000       0.88890000       0.33330000 </v>
   <v>       0.44440000       0.88890000       0.44440000 </v>
   <v>       0.44440000       0.88890000       0.55560000 </v>
   <v>       0.44440000       0.88890000       0.66670000 </v>
   <v>       0.44440000       0.88890000       0.77780000 </v>
   <v>       0.44440000       0.88890000       0.88890000 </v>
   <v>       0.44440000       0.88890000       1.00000000 </v>
   <v>       0.44440000       1.00000000       0.00000000 </v>
   <v>       0.44440000       1.00000000       0.11110000 </v>
   <v>       0.44440000       1.00000000       0.22220000 </v>
   <v>       0.44440000       1.00000000       0.33330000 </v>
   <v>       0.44440000       1.00000000       0.44440000 </v>
   <v>       0.44440000       1.00000000       0.55560000 </v>
   <v>       0.44440000       1.00000000       0.66670000 </v>
   <v>       0.44440000       1.00000000       0.77780000 </v>
   <v>       0.44440000       1.00000000       0.88890000 </v>
   <v>       0.44440000       1.00000000       1.00000000 </v>
   <v>       0.55560000       0.00000000       0.00000000 </v>
   <v>       0.55560000       0.00000000       0.11110000 </v>
   <v>       0.55560000       0.00000000       0.22220000 </v>
   <v>       0.55560000       0.00000000       0.33330000 </v>
   <v>       0.55560000       0.00000000       0.44440000 </v>
   <v>       0.55560000       0.00000000       0.55560000 </v>
   <v>       0.55560000       0.00000000       0.66670000 </v>
   <v>       0.55560000       0.00000000       0.77780000 </v>
   <v>       0.55560000       0.00000000       0.88890000 </v>
   <v>       0.55560000       0.00000000       1.00000000 </v>
   <v>       0.55560000       0.11110000       0.00000000 </v>
   <v>       0.55560000       0.11110000       0.11110000 </v>
   <v>       0.55560000       0.11110000       0.22220000 </v>
   <v>       0.55560000       0.11110000       0.33330000 </v>
   <v>       0.55560000       0.11110000       0.44440000 </v>
   <v>       0.55560000       0.11110000       0.55560000 </v>
   <v>       0.55560000       0.11110000       0.66670000 </v>
   <v>       0.55560000       0.11110000       0.77780000 </v>
   <v>       0.55560000       0.11110000       0.88890000 </v>
   <v>       0.55560000       0.11110000       1.00000000 </v>
   <v>       0.55560000       0.22220000       0.00000000 </v>
   <v>       0.55560000       0.22220000       0.11110000 </v>
   <v>       0.55560000       0.22220000       0.22220000 </v>
   <v>       0.55560000       0.22220000       0.33330000 </v>
   <v>       0.55560000       0.22220000       0.44440000 </v>
   <v>       0.55560000       0.22220000       0.55560000 </v>
   <v>       0.55560000       0.22220000       0.66670000 </v>
   <v>       0.55560000       0.22220000       0.77780000 </v>
   <v>       0.55560000       0.22220000       0.88890000 </v>
   <v>       0.55560000       0.22220000       1.00000000 </v>
   <v>       0.55560000       0.33330000       0.00000000 </v>
   <v>       0.55560000       0.33330000       0.11110000 </v>
   <v>       0.55560000       0.33330000       0.22220000 </v>
   <v>       0.55560000       0.33330000       0.33330000 </v>
   <v>       0.55560000       0.33330000       0.44440000 </v>
   <v>       0.55560000       0.33330000       0.55560000 </v>
   <v>       0.55560000       0.33330000       0.66670000 </v>
   <v>       0.55560000       0.33330000       0.77780000 </v>
   <v>       0.55560000       0.33330000       0.88890000 </v>
   <v>       0.55560000       0.33330000       1.00000000 </v>
   <v>       0.55560000       0.44440000       0.00000000 </v>
   <v>       0.55560000       0.44440000       0.11110000 </v>
   <v>       0.55560000       0.44440000       0.22220000 </v>
   <v>       0.55560000       0.44440000       0.33330000 </v>
   <v>       0.55560000       0.44440000       0.44440000 </v>
   <v>       0.55560000       0.44440000       0.55560000 </v>
   <v>       0.55560000       0.44440000       0.66670000 </v>
   <v>       0.55560000       0.44440000       0.77780000 </v>
   <v>       0.55560000       0.44440000       0.88890000 </v>
   <v>       0.55560000       0.44440000       1.00000000 </v>
   <v>       0.55560000       0.55560000       0.00000000 </v>
   <v>       0.55560000       0.55560000       0.11110000 </v>
   <v>       0.55560000       0.55560000       0.22220000 </v>
   <v>       0.55560000       0.55560000       0.33330000 </v>
   <v>       0.55560000       0.55560000       0.44440000 </v>
   <v>       0.55560000       0.55560000       0.55560000 </v>
   <v>       0.55560000       0.55560000       0.66670000 </v>
   <v>       0.55560000       0.55560000       0.77780000 </v>
   <v>       0.55560000       0.55560000       0.88890000 </v>
   <v>       0.55560000       0.55560000       1.00000000 </v>
   <v>       0.55560000       0.66670000       0.00000000 </v>
   <v>       0.55560000       0.66670000       0.11110000 </v>
   <v>       0.55560000       0.66670000       0.22220000 </v>
   <v>       0.55560000       0.66670000       0.33330000 </v>
   <v>       0.55560000       0.66670000       0.44440000 </v>
   <v>       0.55560000       0.66670000       0.55560000 </v>
   <v>       0.55560000       0.66670000       0.66670000 </v>
   <v>       0.55560000       0.66670000       0.77780000 </v>
   <v>       0.55560000       0.66670000       0.88890000 </v>
   <v>       0.55560000       0.66670000       1.00000000 </v>
   <v>       0.55560000       0.77780000       0.00000000 </v>
   <v>       0.55560000       0.77780000       0.11110000 </v>
   <v>       0.55560000       0.77780000       0.22220000 </v>
   <v>       0.55560000       0.77780000       0.33330000 </v>
   <v>       0.55560000       0.77780000       0.44440000 </v>
   <v>       0.55560000       0.77780000       0.55560000 </v>
   <v>       0.55560000       0.77780000       0.66670000 </v>
   <v>       0.55560000       0.77780000       0.77780000 </v>
   <v>       0.55560000       0.77780000       0.88890000 </v>
   <v>       0.55560000       0.77780000       1.00000000 </v>
   <v>       0.55560000       0.88890000       0.00000000 </v>
   <v>       0.55560000       0.88890000       0.11110000 </v>
   <v>       0.55560000       0.88890000       0.22220000 </v>
   <v>       0.55560000       0.88890000       0.33330000 </v>
   <v>       0.55560000       0.88890000       0.44440000 </v>
   <v>       0.55560000       0.88890000       0.55560000 </v>
   <v>       0.55560000       0.88890000       0.66670000 </v>
   <v>       0.55560000       0.88890000       0.77780000 </v>
   <v>       0.55560000       0.88890000       0.88890000 </v>
   <v>       0.55560000       0.88890000       1.00000000 </v>
   <v>       0.55560000       1.00000000       0.00000000 </v>
   <v>       0.55560000       1.00000000       0.11110000 </v>
   <v>       0.55560000       1.00000000       0.22220000 </v>
   <v>       0.55560000       1.00000000       0.33330000 </v>
   <v>       0.55560000       1.00000000       0.44440000 </v>
   <v>       0.55560000       1.00000000       0.55560000 </v>
   <v>       0.55560000       1.00000000       0.66670000 </v>
   <v>       0.55560000       1.00000000       0.77780000 </v>
   <v>       0.55560000       1.00000000       0.88890000 </v>
   <v>       0.55560000       1.00000000       1.00000000 </v>
   <v>       0.66670000       0.00000000       0.00000000 </v>
   <v>       0.66670000       0.00000000       0.11110000 </v>
   <v>       0.66670000       0.00000000       0.22220000 </v>
   <v>       0.66670000       0.00000000       0.33330000 </v>
   <v>       0.66670000       0.00000000       0.44440000 </v>
   <v>       0.66670000       0.00000000       0.55560000 </v>
   <v>       0.66670000       0.00000000       0.66670000 </v>
   <v>       0.66670000       0.00000000       0.77780000 </v>
   <v>       0.66670000       0.00000000       0.88890000 </v>
   <v>       0.66670000       0.00000000       1.00000000 </v>
   <v>       0.66670000       0.11110000       0.00000000 </v>
   <v>       0.66670000       0.11110000       0.11110000 </v>
   <v>       0.66670000       0.11110000       0.22220000 </v>
   <v>       0.66670000       0.11110000       0.33330000 </v>
   <v>       0.66670000       0.11110000       0.44440000 </v>
   <v>       0.66670000       0.11110000       0.55560000 </v>
   <v>       0.66670000       0.11110000       0.66670000 </v>
   <v>       0.66670000       0.11110000       0.77780000 </v>
   <v>       0.66670000       0.11110000       0.88890000 </v>
   <v>       0.66670000       0.11110000       1.00000000 </v>
   <v>       0.66670000       0.22220000       0.00000000 </v>
   <v>       0.66670000       0.22220000       0.11110000 </v>
   <v>       0.66670000       0.22220000       0.22220000 </v>
   <v>       0.66670000       0.22220000       0.33330000 </v>
   <v>       0.66670000       0.22220000       0.44440000 </v>
   <v>       0.66670000       0.22220000       0.55560000 </v>
   <v>       0.66670000       0.22220000       0.66670000 </v>
   <v>       0.66670000       0.22220000       0.77780000 </v>
   <v>       0.66670000       0.22220000       0.88890000 </v>
   <v>       0.66670000       0.22220000       1.00000000 </v>
   <v>       0.66670000       0.33330000       0.00000000 </v>
   <v>       0.66670000       0.33330000       0.11110000 </v>
   <v>       0.66670000       0.33330000       0.22220000 </v>
   <v>       0.66670000       0.33330000       0.33330000 </v>
   <v>       0.66670000       0.33330000       0.44440000 </v>
   <v>       0.66670000       0.33330000       0.55560000 </v>
   <v>       0.66670000       0.33330000       0.66670000 </v>
   <v>       0.66670000       0.33330000       0.77780000 </v>
   <v>       0.66670000       0.33330000       0.88890000 </v>
   <v>       0.66670000       0.33330000       1.00000000 </v>
   <v>       0.66670000       0.44440000       0.00000000 </v>
   <v>       0.66670000       0.44440000       0.11110000 </v>
   <v>       0.66670000       0.44440000       0.22220000 </v>
   <v>       0.66670000       0.44440000       0.33330000 </v>
   <v>       0.66670000       0.44440000       0.44440000 </v>
   <v>       0.66670000       0.44440000       0.55560000 </v>
   <v>       0.66670000       0.44440000       0.66670000 </v>
   <v>       0.66670000       0.44440000       0.77780000 </v>
   <v>       0.66670000       0.44440000       0.88890000 </v>
   <v>       0.66670000       0.44440000       1.00000000 </v>
   <v>       0.66670000       0.55560000       0.00000000 </v>
   <v>       0.66670000       0.55560000       0.11110000 </v>
   <v>       0.66670000       0.55560000       0.22220000 </v>
   <v>       0.66670000       0.55560000       0.33330000 </v>
   <v>       0.66670000       0.55560000       0.44440000 </v>
   <v>       0.66670000       0.55560000       0.55560000 </v>
   <v>       0.66670000       0.55560000       0.66670000 </v>
   <v>       0.66670000       0.55560000       0.77780000 </v>
   <v>       0.66670000       0.55560000       0.88890000 </v>
   <v>       0.66670000       0.55560000       1.00000000 </v>
   <v>       0.66670000       0.66670000       0.00000000 </v>
   <v>       0.66670000       0.66670000       0.11110000 </v>
   <v>       0.66670000       0.66670000       0.22220000 </v>
   <v>       0.66670000       0.66670000       0.33330000 </v>
   <v>       0.66670000       0.66670000       0.44440000 </v>
   <v>       0.66670000       0.66670000       0.55560000 </v>
   <v>       0.66670000       0.66670000       0.66670000 </v>
   <v>       0.66670000       0.66670000       0.77780000 </v>
   <v>       0.66670000       0.66670000       0.88890000 </v>
   <v>       0.66670000       0.66670000       1.00000000 </v>
   <v>       0.66670000       0.77780000       0.00000000 </v>
   <v>       0.66670000       0.77780000       0.11110000 </v>
   <v>       0.66670000       0.77780000       0.22220000 </v>
   <v>       0.66670000       0.77780000       0.33330000 </v>
   <v>       0.66670000       0.77780000       0.44440000 </v>
   <v>       0.66670000       0.77780000       0.55560000 </v>
   <v>       0.66670000       0.77780000       0.66670000 </v>
   <v>       0.66670000       0.77780000       0.77780000 </v>
   <v>       0.66670000       0.77780000       0.88890000 </v>
   <v>       0.66670000       0.77780000       1.00000000 </v>
   <v>       0.66670000       0.88890000       0.00000000 </v>
   <v>       0.66670000       0.88890000       0.11110000 </v>
   <v>       0.66670000       0.88890000       0.22220000 </v>
   <v>       0.66670000       0.88890000       0.33330000 </v>
   <v>       0.66670000       0.88890000       0.44440000 </v>
   <v>       0.66670000       0.88890000       0.55560000 </v>
   <v>       0.66670000       0.88890000       0.66670000 </v>
   <v>       0.66670000       0.88890000       0.77780000 </v>
   <v>       0.66670000       0.88890000       0.88890000 </v>
   <v>       0.66670000       0.88890000       1.00000000 </v>
   <v>       0.66670000       1.00000000       0.00000000 </v>
   <v>       0.66670000       1.00000000       0.11110000 </v>
   <v>       0.66670000       1.00000000       0.22220000 </v>
   <v>       0.66670000       1.00000000       0.33330000 </v>
   <v>       0.66670000       1.00000000       0.44440000 </v>
   <v>       0.66670000       1.00000000       0.55560000 </v>
   <v>       0.66670000       1.00000000       0.66670000 </v>
   <v>       0.66670000       1.00000000       0.77780000 </v>
   <v>       0.66670000       1.00000000       0.88890000 </v>
   <v>       0.66670000       1.00000000       1.00000000 </v>
   <v>       0.77780000       0.00000000       0.00000000 </v>
   <v>       0.77780000       0.00000000       0.11110000 </v>
   <v>       0.77780000       0.00000000       0.22220000 </v>
   <v>       0.77780000       0.00000000       0.33330000 </v>
   <v>       0.77780000       0.00000000       0.44440000 </v>
   <v>       0.77780000       0.00000000       0.55560000 </v>
   <v>       0.77780000       0.00000000       0.66670000 </v>
   <v>       0.77780000       0.00000000       0.77780000 </v>
   <v>       0.77780000       0.00000000       0.88890000 </v>
   <v>       0.77780000       0.00000000       1.00000000 </v>
   <v>       0.77780000       0.11110000       0.00000000 </v>
   <v>       0.77780000       0.11110000       0.11110000 </v>
   <v>       0.77780000       0.11110000       0.22220000 </v>
   <v>       0.77780000       0.11110000       0.33330000 </v>
   <v>       0.77780000       0.11110000       0.44440000 </v>
   <v>       0.77780000       0.11110000       0.55560000 </v>
   <v>       0.77780000       0.11110000       0.66670000 </v>
   <v>       0.77780000       0.11110000       0.77780000 </v>
   <v>       0.77780000       0.11110000       0.88890000 </v>
   <v>       0.77780000       0.11110000       1.00000000 </v>
   <v>       0.77780000       0.22220000       0.00000000 </v>
   <v>       0.77780000       0.22220000       0.11110000 </v>
   <v>       0.77780000       0.22220000       0.22220000 </v>
   <v>       0.77780000       0.22220000       0.33330000 </v>
   <v>       0.77780000       0.22220000       0.44440000 </v>
   <v>       0.77780000       0.22220000       0.55560000 </v>
   <v>       0.77780000       0.22220000       0.66670000 </v>
   <v>       0.77780000       0.22220000       0.77780000 </v>
   <v>       0.77780000       0.22220000       0.88890000 </v>
   <v>       0.77780000       0.22220000       1.00000000 </v>
   <v>       0.77780000       0.33330000       0.00000000 </v>
   <v>       0.77780000       0.33330000       0.11110000 </v>
   <v>       0.77780000       0.33330000       0.22220000 </v>
   <v>       0.77780000       0.33330000       0.33330000 </v>
   <v>       0.77780000       0.33330000       0.44440000 </v>
   <v>       0.77780000       0.33330000       0.55560000 </v>
   <v>       0.77780000       0.33330000       0.66670000 </v>
   <v>       0.77780000       0.33330000       0.77780000 </v>
   <v>       0.77780000       0.33330000       0.88890000 </v>
   <v>       0.77780000       0.33330000       1.00000000 </v>
   <v>       0.77780000       0.44440000       0.00000000 </v>
   <v>       0.77780000       0.44440000       0.11110000 </v>
   <v>       0.77780000       0.44440000       0.22220000 </v>
   <v>       0.77780000       0.44440000       0.33330000 </v>
   <v>       0.77780000       0.44440000       0.44440000 </v>
   <v>       0.77780000       0.44440000       0.55560000 </v>
   <v>       0.77780000       0.44440000       0.66670000 </v>
   <v>       0.77780000       0.44440000       0.77780000 </v>
   <v>       0.77780000       0.44440000       0.88890000 </v>
   <v>       0.77780000       0.44440000       1.00000000 </v>
   <v>       0.77780000       0.55560000       0.00000000 </v>
   <v>       0.77780000       0.55560000       0.11110000 </v>
   <v>       0.77780000       0.55560000       0.22220000 </v>
   <v>       0.77780000       0.55560000       0.33330000 </v>
   <v>       0.77780000       0.55560000       0.44440000 </v>
   <v>       0.77780000       0.55560000       0.55560000 </v>
   <v>       0.77780000       0.55560000       0.66670000 </v>
   <v>       0.77780000       0.55560000       0.77780000 </v>
   <v>       0.77780000       0.55560000       0.88890000 </v>
   <v>       0.77780000       0.55560000       1.00000000 </v>
   <v>       0.77780000       0.66670000       0.00000000 </v>
   <v>       0.77780000       0.66670000       0.11110000 </v>
   <v>       0.77780000       0.66670000       0.22220000 </v>
   <v>       0.77780000       0.66670000       0.33330000 </v>
   <v>       0.77780000       0.66670000       0.44440000 </v>
   <v>       0.77780000       0.66670000       0.55560000 </v>
   <v>       0.77780000       0.66670000       0.66670000 </v>
   <v>       0.77780000       0.66670000       0.77780000 </v>
   <v>       0.77780000       0.66670000       0.88890000 </v>
   <v>       0.77780000       0.66670000       1.00000000 </v>
   <v>       0.77780000       0.77780000       0.00000000 </v>
   <v>       0.77780000       0.77780000       0.11110000 </v>
   <v>       0.77780000       0.77780000       0.22220000 </v>
   <v>       0.77780000       0.77780000       0.33330000 </v>
   <v>       0.77780000       0.77780000       0.44440000 </v>
   <v>       0.77780000       0.77780000       0.55560000 </v>
   <v>       0.77780000       0.77780000       0.66670000 </v>
   <v>       0.77780000       0.77780000       0.77780000 </v>
   <v>       0.77780000       0.77780000       0.88890000 </v>
   <v>       0.77780000       0.77780000       1.00000000 </v>
   <v>       0.77780000       0.88890000       0.00000000 </v>
   <v>       0.77780000       0.88890000       0.11110000 </v>
   <v>       0.77780000       0.88890000       0.22220000 </v>
   <v>       0.77780000       0.88890000       0.33330000 </v>
   <v>       0.77780000       0.88890000       0.44440000 </v>
   <v>       0.77780000       0.88890000       0.55560000 </v>
   <v>       0.77780000       0.88890000       0.66670000 </v>
   <v>       0.77780000       0.88890000       0.77780000 </v>
   <v>       0.77780000       0.88890000       0.88890000 </v>
   <v>       0.77780000       0.88890000       1.00000000 </v>
   <v>       0.77780000       1.00000000       0.00000000 </v>
   <v>       0.77780000       1.00000000       0.11110000 </v>
   <v>       0.77780000       1.00000000       0.22220000 </v>
   <v>       0.77780000       1.00000000       0.33330000 </v>
   <v>       0.77780000       1.00000000       0.44440000 </v>
   <v>       0.77780000       1.00000000       0.55560000 </v>
   <v>       0.77780000       1.00000000       0.66670000 </v>
   <v>       0.77780000       1.00000000       0.77780000 </v>
   <v>       0.77780000       1.00000000       0.88890000 </v>
   <v>       0.77780000       1.00000000       1.00000000 </v>
   <v>       0.88890000       0.00000000       0.00000000 </v>
   <v>       0.88890000       0.00000000       0.11110000 </v>
   <v>       0.88890000       0.00000000       0.22220000 </v>
   <v>       0.88890000       0.00000000       0.33330000 </v>
   <v>       0.88890000       0.00000000       0.44440000 </v>
   <v>       0.88890000       0.00000000       0.55560000 </v>
   <v>       0.88890000       0.00000000       0.66670000 </v>
   <v>       0.88890000       0.00000000       0.77780000 </v>
   <v>       0.88890000       0.00000000       0.88890000 </v>
   <v>       0.88890000       0.00000000       1.00000000 </v>
   <v>       0.88890000       0.11110000       0.00000000 </v>
   <v>       0.88890000       0.11110000       0.11110000 </v>
   <v>       0.88890000       0.11110000       0.22220000 </v>
   <v>       0.88890000       0.11110000       0.33330000 </v>
   <v>       0.88890000       0.11110000       0.44440000 </v>
   <v>       0.88890000       0.11110000       0.55560000 </v>
   <v>       0.88890000       0.11110000       0.66670000 </v>
   <v>       0.88890000       0.11110000       0.77780000 </v>
   <v>       0.88890000       0.11110000       0.88890000 </v>
   <v>       0.88890000       0.11110000       1.00000000 </v>
   <v>       0.88890000       0.22220000       0.00000000 </v>
   <v>       0.88890000       0.22220000       0.11110000 </v>
   <v>       0.88890000       0.22220000       0.22220000 </v>
   <v>       0.88890000       0.22220000       0.33330000 </v>
   <v>       0.88890000       0.22220000       0.44440000 </v>
   <v>       0.88890000       0.22220000       0.55560000 </v>
   <v>       0.88890000       0.22220000       0.66670000 </v>
   <v>       0.88890000       0.22220000       0.77780000 </v>
   <v>       0.88890000       0.22220000       0.88890000 </v>
   <v>       0.88890000       0.22220000       1.00000000 </v>
   <v>       0.88890000       0.33330000       0.00000000 </v>
   <v>       0.88890000       0.33330000       0.11110000 </v>
   <v>       0.88890000       0.33330000       0.22220000 </v>
   <v>       0.88890000       0.33330000       0.33330000 </v>
   <v>       0.88890000       0.33330000       0.44440000 </v>
   <v>       0.88890000       0.33330000       0.55560000 </v>
   <v>       0.88890000       0.33330000       0.66670000 </v>
   <v>       0.88890000       0.33330000       0.77780000 </v>
   <v>       0.88890000       0.33330000       0.88890000 </v>
   <v>       0.88890000       0.33330000       1.00000000 </v>
   <v>       0.88890000       0.44440000       0.00000000 </v>
   <v>       0.88890000       0.44440000       0.11110000 </v>
   <v>       0.88890000       0.44440000       0.22220000 </v>
   <v>       0.88890000       0.44440000       0.33330000 </v>
   <v>       0.88890000       0.44440000       0.44440000 </v>
   <v>       0.88890000       0.44440000       0.55560000 </v>
   <v>       0.88890000       0.44440000       0.66670000 </v>
   <v>       0.88890000       0.44440000       0.77780000 </v>
   <v>       0.88890000       0.44440000       0.88890000 </v>
   <v>       0.88890000       0.44440000       1.00000000 </v>
   <v>       0.88890000       0.55560000       0.00000000 </v>
   <v>       0.88890000       0.55560000       0.11110000 </v>
   <v>       0.88890000       0.55560000       0.22220000 </v>
   <v>       0.88890000       0.55560000       0.33330000 </v>
   <v>       0.88890000       0.55560000       0.44440000 </v>
   <v>       0.88890000       0.55560000       0.55560000 </v>
   <v>       0.88890000       0.55560000       0.66670000 </v>
   <v>       0.88890000       0.55560000       0.77780000 </v>
   <v>       0.88890000       0.55560000       0.88890000 </v>
   <v>       0.88890000       0.55560000       1.00000000 </v>
   <v>       0.88890000       0.66670000       0.00000000 </v>
   <v>       0.88890000       0.66670000       0.11110000 </v>
   <v>       0.88890000       0.66670000       0.22220000 </v>
   <v>       0.88890000       0.66670000       0.33330000 </v>
   <v>       0.88890000       0.66670000       0.44440000 </v>
   <v>       0.88890000       0.66670000       0.55560000 </v>
   <v>       0.88890000       0.66670000       0.66670000 </v>
   <v>       0.88890000       0.66670000       0.77780000 </v>
   <v>       0.88890000       0.66670000       0.88890000 </v>
   <v>       0.88890000       0.66670000       1.00000000 </v>
   <v>       0.88890000       0.77780000       0.00000000 </v>
   <v>       0.88890000       0.77780000       0.11110000 </v>
   <v>       0.88890000       0.77780000       0.22220000 </v>
   <v>       0.88890000       0.77780000       0.33330000 </v>
   <v>       0.88890000       0.77780000       0.44440000 </v>
   <v>       0.88890000       0.77780000       0.55560000 </v>
   <v>       0.88890000       0.77780000       0.66670000 </v>
   <v>       0.88890000       0.77780000       0.77780000 </v>
   <v>       0.88890000       0.77780000       0.88890000 </v>
   <v>       0.88890000       0.77780000       1.00000000 </v>
   <v>       0.88890000       0.88890000       0.00000000 </v>
   <v>       0.88890000       0.88890000       0.11110000 </v>
   <v>       0.88890000       0.88890000       0.22220000 </v>
   <v>       0.88890000       0.88890000       0.33330000 </v>
   <v>       0.88890000       0.88890000       0.44440000 </v>
   <v>       0.88890000       0.88890000       0.55560000 </v>
   <v>       0.88890000       0.88890000       0.66670000 </v>
   <v>       0.88890000       0.88890000       0.77780000 </v>
   <v>       0.88890000       0.88890000       0.88890000 </v>
   <v>       0.88890000       0.88890000       1.00000000 </v>
   <v>       0.88890000       1.00000000       0.00000000 </v>
   <v>       0.88890000       1.00000000       0.11110000 </v>
   <v>       0.88890000       1.00000000       0.22220000 </v>
   <v>       0.88890000       1.00000000       0.33330000 </v>
   <v>       0.88890000       1.00000000       0.44440000 </v>
   <v>       0.88890000       1.00000000       0.55560000 </v>
   <v>       0.88890000       1.00000000       0.66670000 </v>
   <v>       0.88890000       1.00000000       0.77780000 </v>
   <v>       0.88890000       1.00000000       0.88890000 </v>
   <v>       0.88890000       1.00000000       1.00000000 </v>
   <v>       1.00000000       0.00000000       0.00000000 </v>
   <v>       1.00000000       0.00000000       0.11110000 </v>
   <v>       1.00000000       0.00000000       0.22220000 </v>
   <v>       1.00000000       0.00000000       0.33330000 </v>
   <v>       1.00000000       0.00000000       0.44440000 </v>
   <v>       1.00000000       0.00000000       0.55560000 </v>
   <v>       1.00000000       0.00000000       0.66670000 </v>
   <v>       1.00000000       0.00000000       0.77780000 </v>
   <v>       1.00000000       0.00000000       0.88890000 </v>
   <v>       1.00000000       0.00000000       1.00000000 </v>
   <v>       1.00000000       0.11110000       0.00000000 </v>
   <v>       1.00000000       0.11110000       0.11110000 </v>
   <v>       1.00000000       0.11110000       0.22220000 </v>
   <v>       1.00000000       0.11110000       0.33330000 </v>
   <v>       1.00000000       0.11110000       0.44440000 </v>
   <v>       1.00000000       0.11110000       0.55560000 </v>
   <v>       1.00000000       0.11110000       0.66670000 </v>
   <v>       1.00000000       0.11110000       0.77780000 </v>
   <v>       1.00000000       0.11110000       0.88890000 </v>
   <v>       1.00000000       0.11110000       1.00000000 </v>
   <v>       1.00000000       0.22220000       0.00000000 </v>
   <v>       1.00000000       0.22220000       0.11110000 </v>
   <v>       1.00000000       0.22220000       0.22220000 </v>
   <v>       1.00000000       0.22220000       0.33330000 </v>
   <v>       1.00000000       0.22220000       0.44440000 </v>
   <v>       1.00000000       0.22220000       0.55560000 </v>
   <v>       1.00000000       0.22220000       0.66670000 </v>
   <v>       1.00000000       0.22220000       0.77780000 </v>
   <v>       1.00000000       0.22220000       0.88890000 </v>
   <v>       1.00000000       0.22220000       1.00000000 </v>
   <v>       1.00000000       0.33330000       0.00000000 </v>
   <v>       1.00000000       0.33330000       0.11110000 </v>
   <v>       1.00000000       0.33330000       0.22220000 </v>
   <v>       1.00000000       0.33330000       0.33330000 </v>
   <v>       1.00000000       0.33330000       0.44440000 </v>
   <v>       1.00000000       0.33330000       0.55560000 </v>
   <v>       1.00000000       0.33330000       0.66670000 </v>
   <v>       1.00000000       0.33330000       0.77780000 </v>
   <v>       1.00000000       0.33330000       0.88890000 </v>
   <v>       1.00000000       0.33330000       1.00000000 </v>
   <v>       1.00000000       0.44440000       0.00000000 </v>
   <v>       1.00000000       0.44440000       0.11110000 </v>
   <v>       1.00000000       0.44440000       0.22220000 </v>
   <v>       1.00000000       0.44440000       0.33330000 </v>
   <v>       1.00000000       0.44440000       0.44440000 </v>
   <v>       1.00000000       0.44440000       0.55560000 </v>
   <v>       1.00000000       0.44440000       0.66670000 </v>
   <v>       1.00000000       0.44440000       0.77780000 </v>
   <v>       1.00000000       0.44440000       0.88890000 </v>
   <v>       1.00000000       0.44440000       1.00000000 </v>
   <v>       1.00000000       0.55560000       0.00000000 </v>
   <v>       1.00000000       0.55560000       0.11110000 </v>
   <v>       1.00000000       0.55560000       0.22220000 </v>
   <v>       1.00000000       0.55560000       0.33330000 </v>
   <v>       1.00000000       0.55560000       0.44440000 </v>
   <v>       1.00000000       0.55560000       0.55560000 </v>
   <v>       1.00000000       0.55560000       0.66670000 </v>
   <v>       1.00000000       0.55560000       0.77780000 </v>
   <v>       1.00000000       0.55560000       0.88890000 </v>
   <v>       1.00000000       0.55560000       1.00000000 </v>
   <v>       1.00000000       0.66670000       0.00000000 </v>
   <v>       1.00000000       0.66670000       0.11110000 </v>
   <v>       1.00000000       0.66670000       0.22220000 </v>
   <v>       1.00000000       0.66670000       0.33330000 </v>
   <v>       1.00000000       0.66670000       0.44440000 </v>
   <v>       1.00000000       0.66670000       0.55560000 </v>
   <v>       1.00000000       0.66670000       0.66670000 </v>
   <v>       1.00000000       0.66670000       0.77780000 </v>
   <v>       1.00000000       0.66670000       0.88890000 </v>
   <v>       1.00000000       0.66670000       1.00000000 </v>
   <v>       1.00000000       0.77780000       0.00000000 </v>
   <v>       1.00000000       0.77780000       0.11110000 </v>
   <v>       1.00000000       0.77780000       0.22220000 </v>
   <v>       1.00000000       0.77780000       0.33330000 </v>
   <v>       1.00000000       0.77780000       0.44440000 </v>
   <v>       1.00000000       0.77780000       0.55560000 </v>
   <v>       1.00000000       0.77780000       0.66670000 </v>
   <v>       1.00000000       0.77780000       0.77780000 </v>
   <v>       1.00000000       0.77780000       0.88890000 </v>
   <v>       1.00000000       0.77780000       1.00000000 </v>
   <v>       1.00000000       0.88890000       0.00000000 </v>
   <v>       1.00000000       0.88890000       0.11110000 </v>
   <v>       1.00000000       0.88890000       0.22220000 </v>
   <v>       1.00000000       0.88890000       0.33330000 </v>
   <v>       1.00000000       0.88890000       0.44440000 </v>
   <v>       1.00000000       0.88890000       0.55560000 </v>
   <v>       1.00000000       0.88890000       0.66670000 </v>
   <v>       1.00000000       0.88890000       0.77780000 </v>
   <v>       1.00000000       0.88890000       0.88890000 </v>
   <v>       1.00000000       0.88890000       1.00000000 </v>
   <v>       1.00000000       1.00000000       0.00000000 </v>
   <v>       1.00000000       1.00000000       0.11110000 </v>
   <v>       1.00000000       1.00000000       0.22220000 </v>
   <v>       1.00000000       1.00000000       0.33330000 </v>
   <v>       1.00000000       1.00000000       0.44440000 </v>
   <v>       1.00000000       1.00000000       0.55560000 </v>
   <v>       1.00000000       1.00000000       0.66670000 </v>
   <v>       1.00000000       1.00000000       0.77780000 </v>
   <v>       1.00000000       1.00000000       0.88890000 </v>
   <v>       1.00000000       1.00000000       1.00000000 </v>
  </varray>
  <varray name="weights" >
   <v>       0.00100000 </v>
   <v>       0.00100000 </v>
   <v>       0.00100000 </v>
   <v>       0.00100000 </v>
   <v>       0.00100000 </v>
   <v>       0.00100000 </v>
   <v>       0.00100000 </v>
   <v>       0.00100000 </v>
   <v>       0.00100000 </v>
   <v>       0.00100000 </v>
   <v>       0.00100000 </v>
   <v>       0.00100000 </v>
   <v>       0.00100000 </v>
   <v>       0.00100000 </v>
   <v>       0.00100000 </v>
   <v>       0.00100000 </v>
   <v>       0.00100000 </v>
   <v>       0.00100000 </v>
   <v>       0.00100000 </v>
   <v>       0.00100000 </v>
   <v>       0.00100000 </v>
   <v>       0.00100000 </v>
   <v>       0.00100000 </v>
   <v>       0.00100000 </v>
   <v>       0.00100000 </v>
   <v>       0.00100000 </v>
   <v>       0.00100000 </v>
   <v>       0.00100000 </v>
   <v>       0.00100000 </v>
   <v>       0.00100000 </v>
   <v>       0.00100000 </v>
   <v>       0.00100000 </v>
   <v>       0.00100000 </v>
   <v>       0.00100000 </v>
   <v>       0.00100000 </v>
   <v>       0.00100000 </v>
   <v>       0.00100000 </v>
   <v>       0.00100000 </v>
   <v>       0.00100000 </v>
   <v>       0.00100000 </v>
   <v>       0.00100000 </v>
   <v>       0.00100000 </v>
   <v>       0.00100000 </v>
   <v>       0.00100000 </v>
   <v>       0.00100000 </v>
   <v>       0.00100000 </v>
   <v>       0.00100000 </v>
   <v>       0.00100000 </v>
   <v>       0.00100000 </v>
   <v>       0.00100000 </v>
   <v>       0.00100000 </v>
   <v>       0.00100000 </v>
   <v>       0.00100000 </v>
   <v>       0.00100000 </v>
   <v>       0.00100000 </v>
   <v>       0.00100000 </v>
   <v>       0.00100000 </v>
   <v>       0.00100000 </v>
   <v>       0.00100000 </v>
   <v>       0.00100000 </v>
   <v>       0.00100000 </v>
   <v>       0.00100000 </v>
   <v>       0.00100000 </v>
   <v>       0.00100000 </v>
   <v>       0.00100000 </v>
   <v>       0.00100000 </v>
   <v>       0.00100000 </v>
   <v>       0.00100000 </v>
   <v>       0.00100000 </v>
   <v>       0.00100000 </v>
   <v>       0.00100000 </v>
   <v>       0.00100000 </v>
   <v>       0.00100000 </v>
   <v>       0.00100000 </v>
   <v>       0.00100000 </v>
   <v>       0.00100000 </v>
   <v>       0.00100000 </v>
   <v>       0.00100000 </v>
   <v>       0.00100000 </v>
   <v>       0.00100000 </v>
   <v>       0.00100000 </v>
   <v>       0.00100000 </v>
   <v>       0.00100000 </v>
   <v>       0.00100000 </v>
   <v>       0.00100000 </v>
   <v>       0.00100000 </v>
   <v>       0.00100000 </v>
   <v>       0.00100000 </v>
   <v>       0.00100000 </v>
   <v>       0.00100000 </v>
   <v>       0.00100000 </v>
   <v>       0.00100000 </v>
   <v>       0.00100000 </v>
   <v>       0.00100000 </v>
   <v>       0.00100000 </v>
   <v>       0.00100000 </v>
   <v>       0.00100000 </v>
   <v>       0.00100000 </v>
   <v>       0.00100000 </v>
   <v>       0.00100000 </v>
   <v>       0.00100000 </v>
   <v>       0.00100000 </v>
   <v>       0.00100000 </v>
   <v>       0.00100000 </v>
   <v>       0.00100000 </v>
   <v>       0.00100000 </v>
   <v>       0.00100000 </v>
   <v>       0.00100000 </v>
   <v>       0.00100000 </v>
   <v>       0.00100000 </v>
   <v>       0.00100000 </v>
   <v>       0.00100000 </v>
   <v>       0.00100000 </v>
   <v>       0.00100000 </v>
   <v>       0.00100000 </v>
   <v>       0.00100000 </v>
   <v>       0.00100000 </v>
   <v>       0.00100000 </v>
   <v>       0.00100000 </v>
   <v>       0.00100000 </v>
   <v>       0.00100000 </v>
   <v>       0.00100000 </v>
   <v>       0.00100000 </v>
   <v>       0.00100000 </v>
   <v>       0.00100000 </v>
   <v>       0.00100000 </v>
   <v>       0.00100000 </v>
   <v>       0.00100000 </v>
   <v>       0.00100000 </v>
   <v>       0.00100000 </v>
   <v>       0.00100000 </v>
   <v>       0.00100000 </v>
   <v>       0.00100000 </v>
   <v>       0.00100000 </v>
   <v>       0.00100000 </v>
   <v>       0.00100000 </v>
   <v>       0.00100000 </v>
   <v>       0.00100000 </v>
   <v>       0.00100000 </v>
   <v>       0.00100000 </v>
   <v>       0.00100000 </v>
   <v>       0.00100000 </v>
   <v>       0.00100000 </v>
   <v>       0.00100000 </v>
   <v>       0.00100000 </v>
   <v>       0.00100000 </v>
   <v>       0.00100000 </v>
   <v>       0.00100000 </v>
   <v>       0.00100000 </v>
   <v>       0.00100000 </v>
   <v>       0.00100000 </v>
   <v>       0.00100000 </v>
   <v>       0.00100000 </v>
   <v>       0.00100000 </v>
   <v>       0.00100000 </v>
   <v>       0.00100000 </v>
   <v>       0.00100000 </v>
   <v>       0.00100000 </v>
   <v>       0.00100000 </v>
   <v>       0.00100000 </v>
   <v>       0.00100000 </v>
   <v>       0.00100000 </v>
   <v>       0.00100000 </v>
   <v>       0.00100000 </v>
   <v>       0.00100000 </v>
   <v>       0.00100000 </v>
   <v>       0.00100000 </v>
   <v>       0.00100000 </v>
   <v>       0.00100000 </v>
   <v>       0.00100000 </v>
   <v>       0.00100000 </v>
   <v>       0.00100000 </v>
   <v>       0.00100000 </v>
   <v>       0.00100000 </v>
   <v>       0.00100000 </v>
   <v>       0.00100000 </v>
   <v>       0.00100000 </v>
   <v>       0.00100000 </v>
   <v>       0.00100000 </v>
   <v>       0.00100000 </v>
   <v>       0.00100000 </v>
   <v>       0.00100000 </v>
   <v>       0.00100000 </v>
   <v>       0.00100000 </v>
   <v>       0.00100000 </v>
   <v>       0.00100000 </v>
   <v>       0.00100000 </v>
   <v>       0.00100000 </v>
   <v>       0.00100000 </v>
   <v>       0.00100000 </v>
   <v>       0.00100000 </v>
   <v>       0.00100000 </v>
   <v>       0.00100000 </v>
   <v>       0.00100000 </v>
   <v>       0.00100000 </v>
   <v>       0.00100000 </v>
   <v>       0.00100000 </v>
   <v>       0.00100000 </v>
   <v>       0.00100000 </v>
   <v>       0.00100000 </v>
   <v>       0.00100000 </v>
   <v>       0.00100000 </v>
   <v>       0.00100000 </v>
   <v>       0.00100000 </v>
   <v>       0.00100000 </v>
   <v>       0.00100000 </v>
   <v>       0.00100000 </v>
   <v>       0.00100000 </v>
   <v>       0.00100000 </v>
   <v>       0.00100000 </v>
   <v>       0.00100000 </v>
   <v>       0.00100000 </v>
   <v>       0.00100000 </v>
   <v>       0.00100000 </v>
   <v>       0.00100000 </v>
   <v>       0.00100000 </v>
   <v>       0.00100000 </v>
   <v>       0.00100000 </v>
   <v>       0.00100000 </v>
   <v>       0.00100000 </v>
   <v>       0.00100000 </v>
   <v>       0.00100000 </v>
   <v>       0.00100000 </v>
   <v>       0.00100000 </v>
   <v>       0.00100000 </v>
   <v>       0.00100000 </v>
   <v>       0.00100000 </v>
   <v>       0.00100000 </v>
   <v>       0.00100000 </v>
   <v>       0.00100000 </v>
   <v>       0.00100000 </v>
   <v>       0.00100000 </v>
   <v>       0.00100000 </v>
   <v>       0.00100000 </v>
   <v>       0.00100000 </v>
   <v>       0.00100000 </v>
   <v>       0.00100000 </v>
   <v>       0.00100000 </v>
   <v>       0.00100000 </v>
   <v>       0.00100000 </v>
   <v>       0.00100000 </v>
   <v>       0.00100000 </v>
   <v>       0.00100000 </v>
   <v>       0.00100000 </v>
   <v>       0.00100000 </v>
   <v>       0.00100000 </v>
   <v>       0.00100000 </v>
   <v>       0.00100000 </v>
   <v>       0.00100000 </v>
   <v>       0.00100000 </v>
   <v>       0.00100000 </v>
   <v>       0.00100000 </v>
   <v>       0.00100000 </v>
   <v>       0.00100000 </v>
   <v>       0.00100000 </v>
   <v>       0.00100000 </v>
   <v>       0.00100000 </v>
   <v>       0.00100000 </v>
   <v>       0.00100000 </v>
   <v>       0.00100000 </v>
   <v>       0.00100000 </v>
   <v>       0.00100000 </v>
   <v>       0.00100000 </v>
   <v>       0.00100000 </v>
   <v>       0.00100000 </v>
   <v>       0.00100000 </v>
   <v>       0.00100000 </v>
   <v>       0.00100000 </v>
   <v>       0.00100000 </v>
   <v>       0.00100000 </v>
   <v>       0.00100000 </v>
   <v>       0.00100000 </v>
   <v>       0.00100000 </v>
   <v>       0.00100000 </v>
   <v>       0.00100000 </v>
   <v>       0.00100000 </v>
   <v>       0.00100000 </v>
   <v>       0.00100000 </v>
   <v>       0.00100000 </v>
   <v>       0.00100000 </v>
   <v>       0.00100000 </v>
   <v>       0.00100000 </v>
   <v>       0.00100000 </v>
   <v>       0.00100000 </v>
   <v>       0.00100000 </v>
   <v>       0.00100000 </v>
   <v>       0.00100000 </v>
   <v>       0.00100000 </v>
   <v>       0.00100000 </v>
   <v>       0.00100000 </v>
   <v>       0.00100000 </v>
   <v>       0.00100000 </v>
   <v>       0.00100000 </v>
   <v>       0.00100000 </v>
   <v>       0.00100000 </v>
   <v>       0.00100000 </v>
   <v>       0.00100000 </v>
   <v>       0.00100000 </v>
   <v>       0.00100000 </v>
   <v>       0.00100000 </v>
   <v>       0.00100000 </v>
   <v>       0.00100000 </v>
   <v>       0.00100000 </v>
   <v>       0.00100000 </v>
   <v>       0.00100000 </v>
   <v>       0.00100000 </v>
   <v>       0.00100000 </v>
   <v>       0.00100000 </v>
   <v>       0.00100000 </v>
   <v>       0.00100000 </v>
   <v>       0.00100000 </v>
   <v>       0.00100000 </v>
   <v>       0.00100000 </v>
   <v>       0.00100000 </v>
   <v>       0.00100000 </v>
   <v>       0.00100000 </v>
   <v>       0.00100000 </v>
   <v>       0.00100000 </v>
   <v>       0.00100000 </v>
   <v>       0.00100000 </v>
   <v>       0.00100000 </v>
   <v>       0.00100000 </v>
   <v>       0.00100000 </v>
   <v>       0.00100000 </v>
   <v>       0.00100000 </v>
   <v>       0.00100000 </v>
   <v>       0.00100000 </v>
   <v>       0.00100000 </v>
   <v>       0.00100000 </v>
   <v>       0.00100000 </v>
   <v>       0.00100000 </v>
   <v>       0.00100000 </v>
   <v>       0.00100000 </v>
   <v>       0.00100000 </v>
   <v>       0.00100000 </v>
   <v>       0.00100000 </v>
   <v>       0.00100000 </v>
   <v>       0.00100000 </v>
   <v>       0.00100000 </v>
   <v>       0.00100000 </v>
   <v>       0.00100000 </v>
   <v>       0.00100000 </v>
   <v>       0.00100000 </v>
   <v>       0.00100000 </v>
   <v>       0.00100000 </v>
   <v>       0.00100000 </v>
   <v>       0.00100000 </v>
   <v>       0.00100000 </v>
   <v>       0.00100000 </v>
   <v>       0.00100000 </v>
   <v>       0.00100000 </v>
   <v>       0.00100000 </v>
   <v>       0.00100000 </v>
   <v>       0.00100000 </v>
   <v>       0.00100000 </v>
   <v>       0.00100000 </v>
   <v>       0.00100000 </v>
   <v>       0.00100000 </v>
   <v>       0.00100000 </v>
   <v>       0.00100000 </v>
   <v>       0.00100000 </v>
   <v>       0.00100000 </v>
   <v>       0.00100000 </v>
   <v>       0.00100000 </v>
   <v>       0.00100000 </v>
   <v>       0.00100000 </v>
   <v>       0.00100000 </v>
   <v>       0.00100000 </v>
   <v>       0.00100000 </v>
   <v>       0.00100000 </v>
   <v>       0.00100000 </v>
   <v>       0.00100000 </v>
   <v>       0.00100000 </v>
   <v>       0.00100000 </v>
   <v>       0.00100000 </v>
   <v>       0.00100000 </v>
   <v>       0.00100000 </v>
   <v>       0.00100000 </v>
   <v>       0.00100000 </v>
   <v>       0.00100000 </v>
   <v>       0.00100000 </v>
   <v>       0.00100000 </v>
   <v>       0.00100000 </v>
   <v>       0.00100000 </v>
   <v>       0.00100000 </v>
   <v>       0.00100000 </v>
   <v>       0.00100000 </v>
   <v>       0.00100000 </v>
   <v>       0.00100000 </v>
   <v>       0.00100000 </v>
   <v>       0.00100000 </v>
   <v>       0.00100000 </v>
   <v>       0.00100000 </v>
   <v>       0.00100000 </v>
   <v>       0.00100000 </v>
   <v>       0.00100000 </v>
   <v>       0.00100000 </v>
   <v>       0.00100000 </v>
   <v>       0.00100000 </v>
   <v>       0.00100000 </v>
   <v>       0.00100000 </v>
   <v>       0.00100000 </v>
   <v>       0.00100000 </v>
   <v>       0.00100000 </v>
   <v>       0.00100000 </v>
   <v>       0.00100000 </v>
   <v>       0.00100000 </v>
   <v>       0.00100000 </v>
   <v>       0.00100000 </v>
   <v>       0.00100000 </v>
   <v>       0.00100000 </v>
   <v>       0.00100000 </v>
   <v>       0.00100000 </v>
   <v>       0.00100000 </v>
   <v>       0.00100000 </v>
   <v>       0.00100000 </v>
   <v>       0.00100000 </v>
   <v>       0.00100000 </v>
   <v>       0.00100000 </v>
   <v>       0.00100000 </v>
   <v>       0.00100000 </v>
   <v>       0.00100000 </v>
   <v>       0.00100000 </v>
   <v>       0.00100000 </v>
   <v>       0.00100000 </v>
   <v>       0.00100000 </v>
   <v>       0.00100000 </v>
   <v>       0.00100000 </v>
   <v>       0.00100000 </v>
   <v>       0.00100000 </v>
   <v>       0.00100000 </v>
   <v>       0.00100000 </v>
   <v>       0.00100000 </v>
   <v>       0.00100000 </v>
   <v>       0.00100000 </v>
   <v>       0.00100000 </v>
   <v>       0.00100000 </v>
   <v>       0.00100000 </v>
   <v>       0.00100000 </v>
   <v>       0.00100000 </v>
   <v>       0.00100000 </v>
   <v>       0.00100000 </v>
   <v>       0.00100000 </v>
   <v>       0.00100000 </v>
   <v>       0.00100000 </v>
   <v>       0.00100000 </v>
   <v>       0.00100000 </v>
   <v>       0.00100000 </v>
   <v>       0.00100000 </v>
   <v>       0.00100000 </v>
   <v>       0.00100000 </v>
   <v>       0.00100000 </v>
   <v>       0.00100000 </v>
   <v>       0.00100000 </v>
   <v>       0.00100000 </v>
   <v>       0.00100000 </v>
   <v>       0.00100000 </v>
   <v>       0.00100000 </v>
   <v>       0.00100000 </v>
   <v>       0.00100000 </v>
   <v>       0.00100000 </v>
   <v>       0.00100000 </v>
   <v>       0.00100000 </v>
   <v>       0.00100000 </v>
   <v>       0.00100000 </v>
   <v>       0.00100000 </v>
   <v>       0.00100000 </v>
   <v>       0.00100000 </v>
   <v>       0.00100000 </v>
   <v>       0.00100000 </v>
   <v>       0.00100000 </v>
   <v>       0.00100000 </v>
   <v>       0.00100000 </v>
   <v>       0.00100000 </v>
   <v>       0.00100000 </v>
   <v>       0.00100000 </v>
   <v>       0.00100000 </v>
   <v>       0.00100000 </v>
   <v>       0.00100000 </v>
   <v>       0.00100000 </v>
   <v>       0.00100000 </v>
   <v>       0.00100000 </v>
   <v>       0.00100000 </v>
   <v>       0.00100000 </v>
   <v>       0.00100000 </v>
   <v>       0.00100000 </v>
   <v>       0.00100000 </v>
   <v>       0.00100000 </v>
   <v>       0.00100000 </v>
   <v>       0.00100000 </v>
   <v>       0.00100000 </v>
   <v>       0.00100000 </v>
   <v>       0.00100000 </v>
   <v>       0.00100000 </v>
   <v>       0.00100000 </v>
   <v>       0.00100000 </v>
   <v>       0.00100000 </v>
   <v>       0.00100000 </v>
   <v>       0.00100000 </v>
   <v>       0.00100000 </v>
   <v>       0.00100000 </v>
   <v>       0.00100000 </v>
   <v>       0.00100000 </v>
   <v>       0.00100000 </v>
   <v>       0.00100000 </v>
   <v>       0.00100000 </v>
   <v>       0.00100000 </v>
   <v>       0.00100000 </v>
   <v>       0.00100000 </v>
   <v>       0.00100000 </v>
   <v>       0.00100000 </v>
   <v>       0.00100000 </v>
   <v>       0.00100000 </v>
   <v>       0.00100000 </v>
   <v>       0.00100000 </v>
   <v>       0.00100000 </v>
   <v>       0.00100000 </v>
   <v>       0.00100000 </v>
   <v>       0.00100000 </v>
   <v>       0.00100000 </v>
   <v>       0.00100000 </v>
   <v>       0.00100000 </v>
   <v>       0.00100000 </v>
   <v>       0.00100000 </v>
   <v>       0.00100000 </v>
   <v>       0.00100000 </v>
   <v>       0.00100000 </v>
   <v>       0.00100000 </v>
   <v>       0.00100000 </v>
   <v>       0.00100000 </v>
   <v>       0.00100000 </v>
   <v>       0.00100000 </v>
   <v>       0.00100000 </v>
   <v>       0.00100000 </v>
   <v>       0.00100000 </v>
   <v>       0.00100000 </v>
   <v>       0.00100000 </v>
   <v>       0.00100000 </v>
   <v>       0.00100000 </v>
   <v>       0.00100000 </v>
   <v>       0.00100000 </v>
   <v>       0.00100000 </v>
   <v>       0.00100000 </v>
   <v>       0.00100000 </v>
   <v>       0.00100000 </v>
   <v>       0.00100000 </v>
   <v>       0.00100000 </v>
   <v>       0.00100000 </v>
   <v>       0.00100000 </v>
   <v>       0.00100000 </v>
   <v>       0.00100000 </v>
   <v>       0.00100000 </v>
   <v>       0.00100000 </v>
[...]
       <r>    4.5336    1.0000 </r>
       <r>   26.6214    0.0000 </r>
       <r>   30.4614    0.0000 </r>
       <r>   31.4020    0.0000 </r>
      </set>
      <set comment="kpoint 993">
       <r>  -63.1180    1.0000 </r>
       <r>  -63.1173    1.0000 </r>
       <r>  -63.1054    1.0000 </r>
       <r>   -0.7185    1.0000 </r>
       <r>    3.4874    1.0000 </r>
       <r>    3.8696    1.0000 </r>
       <r>    3.8696    1.0000 </r>
       <r>    4.5702    1.0000 </r>
       <r>    4.5702    1.0000 </r>
       <r>   20.8358    0.0000 </r>
       <r>   29.8249    0.0000 </r>
       <r>   30.1944    0.0000 </r>
      </set>
      <set comment="kpoint 994">
       <r>  -63.0941    1.0000 </r>
       <r>  -63.0919    1.0000 </r>
       <r>  -63.0913    1.0000 </r>
       <r>    0.9048    1.0000 </r>
       <r>    3.7748    1.0000 </r>
       <r>    3.7938    1.0000 </r>
       <r>    3.7938    1.0000 </r>
       <r>    4.8689    1.0000 </r>
       <r>    4.8690    1.0000 </r>
       <r>   15.5780    0.0000 </r>
       <r>   28.9262    0.0000 </r>
       <r>   29.5256    0.0000 </r>
      </set>
      <set comment="kpoint 995">
       <r>  -63.1149    1.0000 </r>
       <r>  -63.1108    1.0000 </r>
       <r>  -63.1102    1.0000 </r>
       <r>    1.6765    1.0000 </r>
       <r>    3.6924    1.0000 </r>
       <r>    3.6925    1.0000 </r>
       <r>    5.0922    1.0000 </r>
       <r>    5.0923    1.0000 </r>
       <r>    5.3800    1.0000 </r>
       <r>   11.4811    0.0000 </r>
       <r>   28.2934    0.0000 </r>
       <r>   29.2885    0.0000 </r>
      </set>
      <set comment="kpoint 996">
       <r>  -63.1149    1.0000 </r>
       <r>  -63.1108    1.0000 </r>
       <r>  -63.1102    1.0000 </r>
       <r>    1.6765    1.0000 </r>
       <r>    3.6924    1.0000 </r>
       <r>    3.6925    1.0000 </r>
       <r>    5.0922    1.0000 </r>
       <r>    5.0923    1.0000 </r>
       <r>    5.3800    1.0000 </r>
       <r>   11.4811    0.0000 </r>
       <r>   28.2934    0.0000 </r>
       <r>   29.2885    0.0000 </r>
      </set>
      <set comment="kpoint 997">
       <r>  -63.0941    1.0000 </r>
       <r>  -63.0919    1.0000 </r>
       <r>  -63.0913    1.0000 </r>
       <r>    0.9048    1.0000 </r>
       <r>    3.7748    1.0000 </r>
       <r>    3.7938    1.0000 </r>
       <r>    3.7938    1.0000 </r>
       <r>    4.8689    1.0000 </r>
       <r>    4.8690    1.0000 </r>
       <r>   15.5780    0.0000 </r>
       <r>   28.9262    0.0000 </r>
       <r>   29.5256    0.0000 </r>
      </set>
      <set comment="kpoint 998">
       <r>  -63.1180    1.0000 </r>
       <r>  -63.1173    1.0000 </r>
       <r>  -63.1054    1.0000 </r>
       <r>   -0.7185    1.0000 </r>
       <r>    3.4874    1.0000 </r>
       <r>    3.8696    1.0000 </r>
       <r>    3.8696    1.0000 </r>
       <r>    4.5702    1.0000 </r>
       <r>    4.5702    1.0000 </r>
       <r>   20.8358    0.0000 </r>
       <r>   29.8248    0.0000 </r>
       <r>   30.1944    0.0000 </r>
      </set>
      <set comment="kpoint 999">
       <r>  -63.1000    1.0000 </r>
       <r>  -63.0463    1.0000 </r>
       <r>  -63.0457    1.0000 </r>
       <r>   -1.9820    1.0000 </r>
       <r>    3.6278    1.0000 </r>
       <r>    3.8049    1.0000 </r>
       <r>    3.8049    1.0000 </r>
       <r>    4.5336    1.0000 </r>
       <r>    4.5336    1.0000 </r>
       <r>   26.6214    0.0000 </r>
       <r>   30.4614    0.0000 </r>
       <r>   31.4020    0.0000 </r>
      </set>
      <set comment="kpoint 1000">
       <r>  -62.9865    1.0000 </r>
       <r>  -62.9858    1.0000 </r>
       <r>  -62.9858    1.0000 </r>
       <r>   -2.4290    1.0000 </r>
       <r>    3.7345    1.0000 </r>
       <r>    3.7345    1.0000 </r>
       <r>    3.7345    1.0000 </r>
       <r>    4.6214    1.0000 </r>
       <r>    4.6214    1.0000 </r>
       <r>   29.7892    0.0000 </r>
       <r>   32.4823    0.0000 </r>
       <r>   32.4824    0.0000 </r>
      </set>
     </set>
    </set>
   </array>
  </eigenvalues>
  <separator name="orbital magnetization" >
   <v name="MAGDIPOLOUT">      0.00000000      0.00000000      0.00000000</v>
  </separator>
  <dos>
   <i name="efermi">      6.33400723 </i>
   <total>
    <array>
     <dimension dim="1">gridpoints</dimension>
     <dimension dim="2">spin</dimension>
     <field>energy</field>
     <field>total</field>
     <field>integrated</field>
     <set>
      <set comment="spin 1">
       <r>   -67.8980     0.0000     0.0000 </r>
       <r>   -67.5475     0.0000     0.0000 </r>
       <r>   -67.1969     0.0000     0.0000 </r>
       <r>   -66.8464     0.0000     0.0000 </r>
       <r>   -66.4959     0.0000     0.0000 </r>
       <r>   -66.1453     0.0000     0.0000 </r>
       <r>   -65.7948     0.0000     0.0000 </r>
       <r>   -65.4443     0.0000     0.0000 </r>
       <r>   -65.0937     0.0000     0.0000 </r>
       <r>   -64.7432     0.0000     0.0000 </r>
       <r>   -64.3927     0.0000     0.0000 </r>
       <r>   -64.0421     0.0000     0.0000 </r>
       <r>   -63.6916     0.0001     0.0000 </r>
       <r>   -63.3411     0.4364     0.1530 </r>
       <r>   -62.9905    11.1446     4.0596 </r>
       <r>   -62.6400     5.4993     5.9873 </r>
       <r>   -62.2894     0.0363     6.0000 </r>
       <r>   -61.9389     0.0000     6.0000 </r>
       <r>   -61.5884     0.0000     6.0000 </r>
       <r>   -61.2378     0.0000     6.0000 </r>
       <r>   -60.8873     0.0000     6.0000 </r>
       <r>   -60.5368     0.0000     6.0000 </r>
       <r>   -60.1862     0.0000     6.0000 </r>
       <r>   -59.8357     0.0000     6.0000 </r>
       <r>   -59.4852     0.0000     6.0000 </r>
       <r>   -59.1346     0.0000     6.0000 </r>
       <r>   -58.7841     0.0000     6.0000 </r>
       <r>   -58.4336     0.0000     6.0000 </r>
       <r>   -58.0830     0.0000     6.0000 </r>
       <r>   -57.7325     0.0000     6.0000 </r>
       <r>   -57.3820     0.0000     6.0000 </r>
       <r>   -57.0314     0.0000     6.0000 </r>
       <r>   -56.6809     0.0000     6.0000 </r>
       <r>   -56.3304     0.0000     6.0000 </r>
       <r>   -55.9798     0.0000     6.0000 </r>
       <r>   -55.6293     0.0000     6.0000 </r>
       <r>   -55.2788     0.0000     6.0000 </r>
       <r>   -54.9282     0.0000     6.0000 </r>
       <r>   -54.5777     0.0000     6.0000 </r>
       <r>   -54.2271     0.0000     6.0000 </r>
       <r>   -53.8766     0.0000     6.0000 </r>
       <r>   -53.5261     0.0000     6.0000 </r>
       <r>   -53.1755     0.0000     6.0000 </r>
       <r>   -52.8250     0.0000     6.0000 </r>
       <r>   -52.4745     0.0000     6.0000 </r>
       <r>   -52.1239     0.0000     6.0000 </r>
       <r>   -51.7734     0.0000     6.0000 </r>
       <r>   -51.4229     0.0000     6.0000 </r>
       <r>   -51.0723     0.0000     6.0000 </r>
       <r>   -50.7218     0.0000     6.0000 </r>
       <r>   -50.3713     0.0000     6.0000 </r>
       <r>   -50.0207     0.0000     6.0000 </r>
       <r>   -49.6702     0.0000     6.0000 </r>
       <r>   -49.3197     0.0000     6.0000 </r>
       <r>   -48.9691     0.0000     6.0000 </r>
       <r>   -48.6186     0.0000     6.0000 </r>
       <r>   -48.2681     0.0000     6.0000 </r>
       <r>   -47.9175     0.0000     6.0000 </r>
       <r>   -47.5670     0.0000     6.0000 </r>
       <r>   -47.2165     0.0000     6.0000 </r>
       <r>   -46.8659     0.0000     6.0000 </r>
       <r>   -46.5154     0.0000     6.0000 </r>
       <r>   -46.1648     0.0000     6.0000 </r>
       <r>   -45.8143     0.0000     6.0000 </r>
       <r>   -45.4638     0.0000     6.0000 </r>
       <r>   -45.1132     0.0000     6.0000 </r>
       <r>   -44.7627     0.0000     6.0000 </r>
       <r>   -44.4122     0.0000     6.0000 </r>
       <r>   -44.0616     0.0000     6.0000 </r>
       <r>   -43.7111     0.0000     6.0000 </r>
       <r>   -43.3606     0.0000     6.0000 </r>
       <r>   -43.0100     0.0000     6.0000 </r>
       <r>   -42.6595     0.0000     6.0000 </r>
       <r>   -42.3090     0.0000     6.0000 </r>
       <r>   -41.9584     0.0000     6.0000 </r>
       <r>   -41.6079     0.0000     6.0000 </r>
       <r>   -41.2574     0.0000     6.0000 </r>
       <r>   -40.9068     0.0000     6.0000 </r>
       <r>   -40.5563     0.0000     6.0000 </r>
       <r>   -40.2058     0.0000     6.0000 </r>
       <r>   -39.8552     0.0000     6.0000 </r>
       <r>   -39.5047     0.0000     6.0000 </r>
       <r>   -39.1542     0.0000     6.0000 </r>
       <r>   -38.8036     0.0000     6.0000 </r>
       <r>   -38.4531     0.0000     6.0000 </r>
       <r>   -38.1026     0.0000     6.0000 </r>
       <r>   -37.7520     0.0000     6.0000 </r>
       <r>   -37.4015     0.0000     6.0000 </r>
       <r>   -37.0509     0.0000     6.0000 </r>
       <r>   -36.7004     0.0000     6.0000 </r>
       <r>   -36.3499     0.0000     6.0000 </r>
       <r>   -35.9993     0.0000     6.0000 </r>
       <r>   -35.6488     0.0000     6.0000 </r>
       <r>   -35.2983     0.0000     6.0000 </r>
       <r>   -34.9477     0.0000     6.0000 </r>
       <r>   -34.5972     0.0000     6.0000 </r>
       <r>   -34.2467     0.0000     6.0000 </r>
       <r>   -33.8961     0.0000     6.0000 </r>
       <r>   -33.5456     0.0000     6.0000 </r>
       <r>   -33.1951     0.0000     6.0000 </r>
       <r>   -32.8445     0.0000     6.0000 </r>
       <r>   -32.4940     0.0000     6.0000 </r>
       <r>   -32.1435     0.0000     6.0000 </r>
       <r>   -31.7929     0.0000     6.0000 </r>
       <r>   -31.4424     0.0000     6.0000 </r>
       <r>   -31.0919     0.0000     6.0000 </r>
       <r>   -30.7413     0.0000     6.0000 </r>
       <r>   -30.3908     0.0000     6.0000 </r>
       <r>   -30.0403     0.0000     6.0000 </r>
       <r>   -29.6897     0.0000     6.0000 </r>
       <r>   -29.3392     0.0000     6.0000 </r>
       <r>   -28.9886     0.0000     6.0000 </r>
       <r>   -28.6381     0.0000     6.0000 </r>
       <r>   -28.2876     0.0000     6.0000 </r>
       <r>   -27.9370     0.0000     6.0000 </r>
       <r>   -27.5865     0.0000     6.0000 </r>
       <r>   -27.2360     0.0000     6.0000 </r>
       <r>   -26.8854     0.0000     6.0000 </r>
       <r>   -26.5349     0.0000     6.0000 </r>
       <r>   -26.1844     0.0000     6.0000 </r>
       <r>   -25.8338     0.0000     6.0000 </r>
       <r>   -25.4833     0.0000     6.0000 </r>
       <r>   -25.1328     0.0000     6.0000 </r>
       <r>   -24.7822     0.0000     6.0000 </r>
       <r>   -24.4317     0.0000     6.0000 </r>
       <r>   -24.0812     0.0000     6.0000 </r>
       <r>   -23.7306     0.0000     6.0000 </r>
       <r>   -23.3801     0.0000     6.0000 </r>
       <r>   -23.0296     0.0000     6.0000 </r>
       <r>   -22.6790     0.0000     6.0000 </r>
       <r>   -22.3285     0.0000     6.0000 </r>
       <r>   -21.9780     0.0000     6.0000 </r>
       <r>   -21.6274     0.0000     6.0000 </r>
       <r>   -21.2769     0.0000     6.0000 </r>
       <r>   -20.9264     0.0000     6.0000 </r>
       <r>   -20.5758     0.0000     6.0000 </r>
       <r>   -20.2253     0.0000     6.0000 </r>
       <r>   -19.8747     0.0000     6.0000 </r>
       <r>   -19.5242     0.0000     6.0000 </r>
       <r>   -19.1737     0.0000     6.0000 </r>
       <r>   -18.8231     0.0000     6.0000 </r>
       <r>   -18.4726     0.0000     6.0000 </r>
       <r>   -18.1221     0.0000     6.0000 </r>
       <r>   -17.7715     0.0000     6.0000 </r>
       <r>   -17.4210     0.0000     6.0000 </r>
       <r>   -17.0705     0.0000     6.0000 </r>
       <r>   -16.7199     0.0000     6.0000 </r>
       <r>   -16.3694     0.0000     6.0000 </r>
       <r>   -16.0189     0.0000     6.0000 </r>
       <r>   -15.6683     0.0000     6.0000 </r>
       <r>   -15.3178     0.0000     6.0000 </r>
       <r>   -14.9673     0.0000     6.0000 </r>
       <r>   -14.6167     0.0000     6.0000 </r>
       <r>   -14.2662     0.0000     6.0000 </r>
       <r>   -13.9157     0.0000     6.0000 </r>
       <r>   -13.5651     0.0000     6.0000 </r>
       <r>   -13.2146     0.0000     6.0000 </r>
       <r>   -12.8641     0.0000     6.0000 </r>
       <r>   -12.5135     0.0000     6.0000 </r>
       <r>   -12.1630     0.0000     6.0000 </r>
       <r>   -11.8124     0.0000     6.0000 </r>
       <r>   -11.4619     0.0000     6.0000 </r>
       <r>   -11.1114     0.0000     6.0000 </r>
       <r>   -10.7608     0.0000     6.0000 </r>
       <r>   -10.4103     0.0000     6.0000 </r>
       <r>   -10.0598     0.0000     6.0000 </r>
       <r>    -9.7092     0.0000     6.0000 </r>
       <r>    -9.3587     0.0000     6.0000 </r>
       <r>    -9.0082     0.0000     6.0000 </r>
       <r>    -8.6576     0.0000     6.0000 </r>
       <r>    -8.3071     0.0000     6.0000 </r>
       <r>    -7.9566     0.0000     6.0000 </r>
       <r>    -7.6060     0.0000     6.0000 </r>
       <r>    -7.2555     0.0000     6.0000 </r>
       <r>    -6.9050     0.0000     6.0000 </r>
       <r>    -6.5544     0.0000     6.0000 </r>
       <r>    -6.2039     0.0000     6.0000 </r>
       <r>    -5.8534     0.0000     6.0000 </r>
       <r>    -5.5028     0.0000     6.0000 </r>
       <r>    -5.1523     0.0000     6.0000 </r>
       <r>    -4.8018     0.0000     6.0000 </r>
       <r>    -4.4512     0.0000     6.0000 </r>
       <r>    -4.1007     0.0000     6.0000 </r>
       <r>    -3.7501     0.0000     6.0000 </r>
       <r>    -3.3996     0.0000     6.0000 </r>
       <r>    -3.0491     0.0000     6.0000 </r>
       <r>    -2.6985     0.0013     6.0005 </r>
       <r>    -2.3480     0.0321     6.0117 </r>
       <r>    -1.9975     0.0884     6.0427 </r>
       <r>    -1.6469     0.1333     6.0894 </r>
       <r>    -1.2964     0.0482     6.1063 </r>
       <r>    -0.9459     0.1164     6.1471 </r>
       <r>    -0.5953     0.2627     6.2392 </r>
       <r>    -0.2448     0.0596     6.2601 </r>
       <r>     0.1057     0.1152     6.3005 </r>
       <r>     0.4563     0.2524     6.3889 </r>
       <r>     0.8068     0.2186     6.4656 </r>
       <r>     1.1573     0.3147     6.5759 </r>
       <r>     1.5079     0.1980     6.6453 </r>
       <r>     1.8584     0.8376     6.9389 </r>
       <r>     2.2089     1.0180     7.2957 </r>
       <r>     2.5595     1.5537     7.8404 </r>
       <r>     2.9100     1.9204     8.5135 </r>
       <r>     3.2605     1.9662     9.2027 </r>
       <r>     3.6111     2.9136    10.2241 </r>
       <r>     3.9616     4.6909    11.8684 </r>
       <r>     4.3121     3.0733    12.9457 </r>
       <r>     4.6627     3.2628    14.0894 </r>
       <r>     5.0132     3.8934    15.4542 </r>
       <r>     5.3638     3.0986    16.5404 </r>
       <r>     5.7143     0.5313    16.7266 </r>
       <r>     6.0648     0.5888    16.9330 </r>
       <r>     6.4154     0.2304    17.0138 </r>
       <r>     6.7659     0.2437    17.0992 </r>
       <r>     7.1164     0.2148    17.1745 </r>
       <r>     7.4670     0.1936    17.2424 </r>
       <r>     7.8175     0.4504    17.4002 </r>
       <r>     8.1680     0.1833    17.4645 </r>
       <r>     8.5186     0.2134    17.5393 </r>
       <r>     8.8691     0.1725    17.5998 </r>
       <r>     9.2196     0.2443    17.6854 </r>
       <r>     9.5702     0.0878    17.7162 </r>
       <r>     9.9207     0.1548    17.7704 </r>
       <r>    10.2712     0.1462    17.8217 </r>
       <r>    10.6218     0.2267    17.9012 </r>
       <r>    10.9723     0.1787    17.9638 </r>
       <r>    11.3228     0.3518    18.0871 </r>
       <r>    11.6734     0.2952    18.1906 </r>
       <r>    12.0239     0.2199    18.2677 </r>
       <r>    12.3744     0.3257    18.3818 </r>
       <r>    12.7250     0.0553    18.4012 </r>
       <r>    13.0755     0.2414    18.4858 </r>
       <r>    13.4261     0.0320    18.4971 </r>
       <r>    13.7766     0.2288    18.5773 </r>
       <r>    14.1271     0.4168    18.7233 </r>
       <r>    14.4777     0.3482    18.8454 </r>
       <r>    14.8282     0.3226    18.9585 </r>
       <r>    15.1787     0.1997    19.0285 </r>
       <r>    15.5293     0.3608    19.1549 </r>
       <r>    15.8798     0.3652    19.2829 </r>
       <r>    16.2303     0.2811    19.3815 </r>
       <r>    16.5809     0.2168    19.4575 </r>
       <r>    16.9314     0.1927    19.5250 </r>
       <r>    17.2819     0.2830    19.6242 </r>
       <r>    17.6325     0.4475    19.7811 </r>
       <r>    17.9830     0.3148    19.8914 </r>
       <r>    18.3335     0.3006    19.9968 </r>
       <r>    18.6841     0.2561    20.0866 </r>
       <r>    19.0346     0.5610    20.2832 </r>
       <r>    19.3851     0.3634    20.4106 </r>
       <r>    19.7357     0.4142    20.5558 </r>
       <r>    20.0862     0.3151    20.6663 </r>
       <r>    20.4367     0.2746    20.7625 </r>
       <r>    20.7873     0.4214    20.9103 </r>
       <r>    21.1378     0.2385    20.9938 </r>
       <r>    21.4884     0.5540    21.1881 </r>
       <r>    21.8389     0.5790    21.3910 </r>
       <r>    22.1894     0.4377    21.5444 </r>
       <r>    22.5400     0.1314    21.5905 </r>
       <r>    22.8905     0.1319    21.6367 </r>
       <r>    23.2410     0.3694    21.7662 </r>
       <r>    23.5916     0.2568    21.8562 </r>
       <r>    23.9421     0.4577    22.0167 </r>
       <r>    24.2926     0.4867    22.1873 </r>
       <r>    24.6432     0.4078    22.3302 </r>
       <r>    24.9937     0.1726    22.3907 </r>
       <r>    25.3442     0.3168    22.5018 </r>
       <r>    25.6948     0.1495    22.5542 </r>
       <r>    26.0453     0.1743    22.6153 </r>
       <r>    26.3958     0.4220    22.7632 </r>
       <r>    26.7464     0.3940    22.9013 </r>
       <r>    27.0969     0.0775    22.9285 </r>
       <r>    27.4474     0.4080    23.0715 </r>
       <r>    27.7980     0.1762    23.1333 </r>
       <r>    28.1485     0.2048    23.2050 </r>
       <r>    28.4990     0.3201    23.3172 </r>
       <r>    28.8496     0.1039    23.3537 </r>
       <r>    29.2001     0.3318    23.4700 </r>
       <r>    29.5506     0.3966    23.6090 </r>
       <r>    29.9012     0.2198    23.6860 </r>
       <r>    30.2517     0.1588    23.7417 </r>
       <r>    30.6023     0.1652    23.7996 </r>
       <r>    30.9528     0.0273    23.8092 </r>
       <r>    31.3033     0.1621    23.8660 </r>
       <r>    31.6539     0.1822    23.9299 </r>
       <r>    32.0044     0.0080    23.9327 </r>
       <r>    32.3549     0.0821    23.9615 </r>
       <r>    32.7055     0.1045    23.9981 </r>
       <r>    33.0560     0.0054    24.0000 </r>
       <r>    33.4065     0.0000    24.0000 </r>
       <r>    33.7571     0.0000    24.0000 </r>
       <r>    34.1076     0.0000    24.0000 </r>
       <r>    34.4581     0.0000    24.0000 </r>
       <r>    34.8087     0.0000    24.0000 </r>
       <r>    35.1592     0.0000    24.0000 </r>
       <r>    35.5097     0.0000    24.0000 </r>
       <r>    35.8603     0.0000    24.0000 </r>
       <r>    36.2108     0.0000    24.0000 </r>
       <r>    36.5613     0.0000    24.0000 </r>
       <r>    36.9119     0.0000    24.0000 </r>
       <r>    37.2624     0.0000    24.0000 </r>
      </set>
     </set>
    </array>
   </total>
  </dos>
 </calculation>
 <structure name="finalpos" >
  <crystal>
   <varray name="basis" >
    <v>       1.80500000       1.80500000       0.00000000 </v>
    <v>       0.00000000       1.80500000       1.80500000 </v>
    <v>       1.80500000       0.00000000       1.80500000 </v>
   </varray>
   <i name="volume">     11.76147025 </i>
   <varray name="rec_basis" >
    <v>       0.27700831       0.27700831      -0.27700831 </v>
    <v>      -0.27700831       0.27700831       0.27700831 </v>
    <v>       0.27700831      -0.27700831       0.27700831 </v>
   </varray>
  </crystal>
  <varray name="positions" >
   <v>       0.00000000       0.00000000       0.00000000 </v>
  </varray>
 </structure>
</modeling>
