unknown system                          
           1
     1.805000    1.805000    0.000000
     0.000000    1.805000    1.805000
     1.805000    0.000000    1.805000
   Cu
   1
Direct configuration=     1
   0.00000000  0.00000000  0.00000000
