 vasp.5.2.12 11Nov11 complex                                                    
  
 executed on             LinuxIFC date 2020.04.25  11:19:07
 running on    1 nodes
 distr:  one band on    1 nodes,    1 groups


--------------------------------------------------------------------------------------------------------


 INCAR:
 POTCAR:   PAW_PBE Cu_pv 06Sep2000                
 POTCAR:   PAW_PBE Cu_pv 06Sep2000                
   VRHFIN =Cu: d10 p1                                                           
   LEXCH  = PE                                                                  
   EATOM  =  4119.1903 eV,  302.7519 Ry                                         
                                                                                
   TITEL  = PAW_PBE Cu_pv 06Sep2000                                             
   LULTRA =        F    use ultrasoft PP ?                                      
   IUNSCR =        1    unscreen: 0-lin 1-nonlin 2-no                           
   RPACOR =    1.500    partial core radius                                     
   POMASS =   63.546; ZVAL   =   17.000    mass and valenz                      
   RCORE  =    2.000    outmost cutoff radius                                   
   RWIGS  =    2.000; RWIGS  =    1.058    wigner-seitz radius (au A)           
   ENMAX  =  368.605; ENMIN  =  276.454 eV                                      
   RCLOC  =    1.304    cutoff for local pot                                    
   LCOR   =        T    correct aug charges                                     
   LPAW   =        T    paw PP                                                  
   EAUG   =  758.233                                                            
   DEXC   =    -.002                                                            
   RMAX   =    2.402    core radius for proj-oper                               
   RAUG   =    1.300    factor for augmentation sphere                          
   RDEP   =    2.025    radius for radial grids                                 
   QCUT   =   -5.205; QGAM   =   10.410    optimization parameters              
                                                                                
   Description                                                                  
     l     E      TYP  RCUT    TYP  RCUT                                        
     1   .000     23  1.700                                                     
     1  -.100     23  1.700                                                     
     2   .000     23  2.000                                                     
     2   .000     23  2.000                                                     
     0   .000     23  1.800                                                     
     0   .000     23  1.800                                                     
     3   .000      7   .000                                                     
  local pseudopotential read in
  partial core-charges read in
  atomic valenz-charges read in
  non local Contribution for L=           1  read in
    real space projection operators read in
  non local Contribution for L=           1  read in
    real space projection operators read in
  non local Contribution for L=           2  read in
    real space projection operators read in
  non local Contribution for L=           2  read in
    real space projection operators read in
  non local Contribution for L=           0  read in
    real space projection operators read in
  non local Contribution for L=           0  read in
    real space projection operators read in
    PAW grid and wavefunctions read in
 
   number of l-projection  operators is LMAX  =           6
   number of lm-projection operators is LMMAX =          18
 
 PAW_PBE Cu_pv 06Sep2000                :
 energy of atom  1       EATOM=-4119.1903
 kinetic energy error for atom=    1.1264 (will be added to EATOM!!)
 
 
 POSCAR: FCC Cu                                  
  positions in cartesian coordinates
  No initial velocities read in
 exchange correlation table for  LEXCH =        8
   RHO(1)=    0.500       N(1)  =     2000
   RHO(2)=  100.500       N(2)  =     4000
 


--------------------------------------------------------------------------------------------------------


 ion  position               nearest neighbor table
   1  0.000  0.000  0.000-
 
  LATTYP: Found a face centered cubic cell.
 ALAT       =     3.6100000000
  
  Lattice vectors:
  
 A1 = (   1.8050000000,   1.8050000000,   0.0000000000)
 A2 = (   0.0000000000,   1.8050000000,   1.8050000000)
 A3 = (   1.8050000000,   0.0000000000,   1.8050000000)
 Subroutine PRICEL returns:
 Original cell was already a primitive cell.
 

Analysis of symmetry for initial positions (statically):

 Routine SETGRP: Setting up the symmetry group for a 
 face centered cubic supercell.


 Subroutine GETGRP returns: Found 48 space group operations
 (whereof 48 operations were pure point group operations)
 out of a pool of 48 trial point group operations.


The static configuration has the point symmetry O_h .

Analysis of symmetry for dynamics (positions and initial velocities):

 Subroutine DYNSYM returns: Found 48 space group operations
 (whereof 48 operations were pure point group operations)
 out of a pool of 48 trial space group operations
 (whereof 48 operations were pure point group operations)
 and found also     1 'primitive' translations


The dynamic configuration has the point symmetry O_h .
 
 
 KPOINTS: k-points for fermi-surface. K-mesh of 9x
  k-points in reciprocal lattice


--------------------------------------------------------------------------------------------------------




 Dimension of arrays:
   k-points           NKPTS =   1000   k-points in BZ     NKDIM =   1000   number of bands    NBANDS=     12
   number of dos      NEDOS =    301   number of ions     NIONS =      1
   non local maximal  LDIM  =      6   non local SUM 2l+1 LMDIM =     18
   total plane-waves  NPLWV =   1728
   max r-space proj   IRMAX =      1   max aug-charges    IRDMAX=   3098
   dimension x,y,z NGX =    12 NGY =   12 NGZ =   12
   dimension x,y,z NGXF=    24 NGYF=   24 NGZF=   24
   support grid    NGXF=    24 NGYF=   24 NGZF=   24
   ions per type =               1
 NGX,Y,Z   is equivalent  to a cutoff of   7.82,  7.82,  7.82 a.u.
 NGXF,Y,Z  is equivalent  to a cutoff of  15.63, 15.63, 15.63 a.u.


 I would recommend the setting:
   dimension x,y,z NGX =    11 NGY =   11 NGZ =   11
 SYSTEM =  unknown system                          
 POSCAR =  FCC Cu                                  

 Startparameter for this run:
   NWRITE =      2    write-flag & timer
   PREC   = normal    normal or accurate (medium, high low for compatibility)
   ISTART =      0    job   : 0-new  1-cont  2-samecut
   ICHARG =      2    charge: 1-file 2-atom 10-const
   ISPIN  =      1    spin polarized calculation?
   LNONCOLLINEAR =      F non collinear calculations
   LSORBIT =      F    spin-orbit coupling
   INIWAV =      1    electr: 0-lowe 1-rand  2-diag
   LASPH  =      F    aspherical Exc in radial PAW
   METAGGA=      F    non-selfconsistent MetaGGA calc.

 Electronic Relaxation 1
   ENCUT  =  300.0 eV  22.05 Ry    4.70 a.u.   3.61  3.61  3.61*2*pi/ulx,y,z
   ENINI  =  300.0     initial cutoff
   ENAUG  =  758.2 eV  augmentation charge cutoff
   NELM   =     40;   NELMIN=  2; NELMDL= -5     # of ELM steps 
   EDIFF  = 0.1E-03   stopping-criterion for ELM
   LREAL  =      F    real-space projection
   NLSPLINE    = F    spline interpolate recip. space projectors
   LCOMPAT=      F    compatible to vasp.4.4
   GGA_COMPAT  = T    GGA compatible to vasp.4.4-vasp.4.6
   LMAXPAW     = -100 max onsite density
   LMAXMIX     =    2 max onsite mixed and CHGCAR
   VOSKOWN=      0    Vosko Wilk Nusair interpolation
   ROPT   =    0.00000
 Ionic relaxation
   EDIFFG = 0.1E-02   stopping-criterion for IOM
   NSW    =      0    number of steps for IOM
   NBLOCK =      1;   KBLOCK =      1    inner block; outer block 
   IBRION =     -1    ionic relax: 0-MD 1-quasi-New 2-CG
   NFREE  =      0    steps in history (QN), initial steepest desc. (CG)
   ISIF   =      2    stress and relaxation
   IWAVPR =     10    prediction:  0-non 1-charg 2-wave 3-comb
   ISYM   =      2    0-nonsym 1-usesym 2-fastsym
   LCORR  =      T    Harris-Foulkes like correction to forces

   POTIM  = 0.5000    time-step for ionic-motion
   TEIN   =    0.0    initial temperature
   TEBEG  =    0.0;   TEEND  =   0.0 temperature during run
   SMASS  =  -3.00    Nose mass-parameter (am)
   estimated Nose-frequenzy (Omega)   =  0.10E-29 period in steps =****** mass=  -0.149E-27a.u.
   SCALEE = 1.0000    scale energy and forces
   NPACO  =    256;   APACO  = 16.0  distance and # of slots for P.C.
   PSTRESS=    0.0 pullay stress

  Mass of Ions in am
   POMASS =  63.55
  Ionic Valenz
   ZVAL   =  17.00
  Atomic Wigner-Seitz radii
   RWIGS  =  -1.00
  virtual crystal weights 
   VCA    =   1.00
   NELECT =      17.0000    total number of electrons
   NUPDOWN=      -1.0000    fix difference up-down

 DOS related values:
   EMIN   =  10.00;   EMAX   =-10.00  energy-range for DOS
   EFERMI =   0.00
   ISMEAR =     0;   SIGMA  =   0.20  broadening in eV -4-tet -1-fermi 0-gaus

 Electronic relaxation 2 (details)
   IALGO  =     38    algorithm
   LDIAG  =      T    sub-space diagonalisation (order eigenvalues)
   LSUBROT=      T    optimize rotation matrix (better conditioning)
   TURBO    =      0    0=normal 1=particle mesh
   IRESTART =      0    0=no restart 2=restart with 2 vectors
   NREBOOT  =      0    no. of reboots
   NMIN     =      0    reboot dimension
   EREF     =   0.00    reference energy to select bands
   IMIX   =      4    mixing-type and parameters
     AMIX     =   0.40;   BMIX     =  1.00
     AMIX_MAG =   1.60;   BMIX_MAG =  1.00
     AMIN     =   0.10
     WC   =   100.;   INIMIX=   1;  MIXPRE=   1

 Intra band minimization:
   WEIMIN = 0.0000     energy-eigenvalue tresh-hold
   EBREAK =  0.21E-05  absolut break condition
   DEPER  =   0.30     relativ break condition  

   TIME   =   0.40     timestep for ELM

  volume/ion in A,a.u.               =      11.76        79.37
  Fermi-wavevector in a.u.,A,eV,Ry     =   1.850989  3.497863 46.615761  3.426162
  Thomas-Fermi vector in A             =   2.901054
 
 Write flags
   LWAVE  =      T    write WAVECAR
   LCHARG =      T    write CHGCAR
   LVTOT  =      F    write LOCPOT, total local potential
   LVHAR  =      F    write LOCPOT, Hartree potential only
   LELF   =      F    write electronic localiz. function (ELF)
   LORBIT =      0    0 simple, 1 ext, 2 COOP (PROOUT)


 Dipole corrections
   LMONO  =      F    monopole corrections only (constant potential shift)
   LDIPOL =      F    correct potential (dipole corrections)
   IDIPOL =      0    1-x, 2-y, 3-z, 4-all directions 
   EPSILON=  1.0000000 bulk dielectric constant

 Exchange correlation treatment:
   GGA     =    --    GGA type
   LEXCH   =     8    internal setting for exchange type
   VOSKOWN=      0    Vosko Wilk Nusair interpolation
   LHFCALC =     F    Hartree Fock is set to
   LHFONE  =     F    Hartree Fock one center treatment
   AEXX    =    0.0000 exact exchange contribution

 Linear response parameters
   LEPSILON=     F    determine dielectric tensor
   LRPA    =     F    only Hartree local field effects (RPA)
   LNABLA  =     F    use nabla operator in PAW spheres
   LVEL    =     F    velocity operator in full k-point grid
   LINTERFAST=   F  fast interpolation
   KINTER  =     0    interpolate to denser k-point grid
   CSHIFT  =0.1000    complex shift for real part using Kramers Kronig
   OMEGAMAX=  -1.0    maximum frequency
   RTIME   =    0.100 relaxation time in fs

 Orbital magnetization related:
   ORBITALMAG=     F  switch on orbital magnetization
   LCHIMAG   =     F  perturbation theory with respect to B field
   DQ        =  0.001000  dq finite difference perturbation B field



--------------------------------------------------------------------------------------------------------


 Static calculation
 charge density and potential will be updated during run
 non-spin polarized calculation
 Variant of blocked Davidson
 Davidson routine will perform the subspace rotation
 perform sub-space diagonalisation
    after iterative eigenvector-optimisation
 modified Broyden-mixing scheme, WC =      100.0
 initial mixing is a Kerker type mixing with AMIX =  0.4000 and BMIX =      1.0000
 Hartree-type preconditioning will be used
 using additional bands            3
 reciprocal scheme for non local part
 use partial core corrections
 calculate Harris-corrections to forces 
   (improved forces if not selfconsistent)
 use gradient corrections 
 use of overlap-Matrix (Vanderbilt PP)
 Gauss-broadening in eV      SIGMA  =   0.20


--------------------------------------------------------------------------------------------------------


  energy-cutoff  :      300.00
  volume of cell :       11.76
      direct lattice vectors                 reciprocal lattice vectors
     1.805000000  1.805000000  0.000000000     0.277008310  0.277008310 -0.277008310
     0.000000000  1.805000000  1.805000000    -0.277008310  0.277008310  0.277008310
     1.805000000  0.000000000  1.805000000     0.277008310 -0.277008310  0.277008310

  length of vectors
     2.552655480  2.552655480  2.552655480     0.479792467  0.479792467  0.479792467


 
 k-points in units of 2pi/SCALE and weight: k-points for fermi-surface. K-mesh of 9x
   0.00000000  0.00000000  0.00000000       0.001
   0.11110000 -0.11110000  0.11110000       0.001
   0.22220000 -0.22220000  0.22220000       0.001
   0.33330000 -0.33330000  0.33330000       0.001
   0.44440000 -0.44440000  0.44440000       0.001
   0.55560000 -0.55560000  0.55560000       0.001
   0.66670000 -0.66670000  0.66670000       0.001
   0.77780000 -0.77780000  0.77780000       0.001
   0.88890000 -0.88890000  0.88890000       0.001
   1.00000000 -1.00000000  1.00000000       0.001
  -0.11110000  0.11110000  0.11110000       0.001
   0.00000000  0.00000000  0.22220000       0.001
   0.11110000 -0.11110000  0.33330000       0.001
   0.22220000 -0.22220000  0.44440000       0.001
   0.33330000 -0.33330000  0.55550000       0.001
   0.44450000 -0.44450000  0.66670000       0.001
   0.55560000 -0.55560000  0.77780000       0.001
   0.66670000 -0.66670000  0.88890000       0.001
   0.77780000 -0.77780000  1.00000000       0.001
   0.88890000 -0.88890000  1.11110000       0.001
  -0.22220000  0.22220000  0.22220000       0.001
  -0.11110000  0.11110000  0.33330000       0.001
   0.00000000  0.00000000  0.44440000       0.001
   0.11110000 -0.11110000  0.55550000       0.001
   0.22220000 -0.22220000  0.66660000       0.001
   0.33340000 -0.33340000  0.77780000       0.001
   0.44450000 -0.44450000  0.88890000       0.001
   0.55560000 -0.55560000  1.00000000       0.001
   0.66670000 -0.66670000  1.11110000       0.001
   0.77780000 -0.77780000  1.22220000       0.001
  -0.33330000  0.33330000  0.33330000       0.001
  -0.22220000  0.22220000  0.44440000       0.001
  -0.11110000  0.11110000  0.55550000       0.001
   0.00000000  0.00000000  0.66660000       0.001
   0.11110000 -0.11110000  0.77770000       0.001
   0.22230000 -0.22230000  0.88890000       0.001
   0.33340000 -0.33340000  1.00000000       0.001
   0.44450000 -0.44450000  1.11110000       0.001
   0.55560000 -0.55560000  1.22220000       0.001
   0.66670000 -0.66670000  1.33330000       0.001
  -0.44440000  0.44440000  0.44440000       0.001
  -0.33330000  0.33330000  0.55550000       0.001
  -0.22220000  0.22220000  0.66660000       0.001
  -0.11110000  0.11110000  0.77770000       0.001
   0.00000000  0.00000000  0.88880000       0.001
   0.11120000 -0.11120000  1.00000000       0.001
   0.22230000 -0.22230000  1.11110000       0.001
   0.33340000 -0.33340000  1.22220000       0.001
   0.44450000 -0.44450000  1.33330000       0.001
   0.55560000 -0.55560000  1.44440000       0.001
  -0.55560000  0.55560000  0.55560000       0.001
  -0.44450000  0.44450000  0.66670000       0.001
  -0.33340000  0.33340000  0.77780000       0.001
  -0.22230000  0.22230000  0.88890000       0.001
  -0.11120000  0.11120000  1.00000000       0.001
   0.00000000  0.00000000  1.11120000       0.001
   0.11110000 -0.11110000  1.22230000       0.001
   0.22220000 -0.22220000  1.33340000       0.001
   0.33330000 -0.33330000  1.44450000       0.001
   0.44440000 -0.44440000  1.55560000       0.001
  -0.66670000  0.66670000  0.66670000       0.001
  -0.55560000  0.55560000  0.77780000       0.001
  -0.44450000  0.44450000  0.88890000       0.001
  -0.33340000  0.33340000  1.00000000       0.001
  -0.22230000  0.22230000  1.11110000       0.001
  -0.11110000  0.11110000  1.22230000       0.001
   0.00000000  0.00000000  1.33340000       0.001
   0.11110000 -0.11110000  1.44450000       0.001
   0.22220000 -0.22220000  1.55560000       0.001
   0.33330000 -0.33330000  1.66670000       0.001
  -0.77780000  0.77780000  0.77780000       0.001
  -0.66670000  0.66670000  0.88890000       0.001
  -0.55560000  0.55560000  1.00000000       0.001
  -0.44450000  0.44450000  1.11110000       0.001
  -0.33340000  0.33340000  1.22220000       0.001
  -0.22220000  0.22220000  1.33340000       0.001
  -0.11110000  0.11110000  1.44450000       0.001
   0.00000000  0.00000000  1.55560000       0.001
   0.11110000 -0.11110000  1.66670000       0.001
   0.22220000 -0.22220000  1.77780000       0.001
  -0.88890000  0.88890000  0.88890000       0.001
  -0.77780000  0.77780000  1.00000000       0.001
  -0.66670000  0.66670000  1.11110000       0.001
  -0.55560000  0.55560000  1.22220000       0.001
  -0.44450000  0.44450000  1.33330000       0.001
  -0.33330000  0.33330000  1.44450000       0.001
  -0.22220000  0.22220000  1.55560000       0.001
  -0.11110000  0.11110000  1.66670000       0.001
   0.00000000  0.00000000  1.77780000       0.001
   0.11110000 -0.11110000  1.88890000       0.001
  -1.00000000  1.00000000  1.00000000       0.001
  -0.88890000  0.88890000  1.11110000       0.001
  -0.77780000  0.77780000  1.22220000       0.001
  -0.66670000  0.66670000  1.33330000       0.001
  -0.55560000  0.55560000  1.44440000       0.001
  -0.44440000  0.44440000  1.55560000       0.001
  -0.33330000  0.33330000  1.66670000       0.001
  -0.22220000  0.22220000  1.77780000       0.001
  -0.11110000  0.11110000  1.88890000       0.001
   0.00000000  0.00000000  2.00000000       0.001
   0.11110000  0.11110000 -0.11110000       0.001
   0.22220000  0.00000000  0.00000000       0.001
   0.33330000 -0.11110000  0.11110000       0.001
   0.44440000 -0.22220000  0.22220000       0.001
   0.55550000 -0.33330000  0.33330000       0.001
   0.66670000 -0.44450000  0.44450000       0.001
   0.77780000 -0.55560000  0.55560000       0.001
   0.88890000 -0.66670000  0.66670000       0.001
   1.00000000 -0.77780000  0.77780000       0.001
   1.11110000 -0.88890000  0.88890000       0.001
   0.00000000  0.22220000  0.00000000       0.001
   0.11110000  0.11110000  0.11110000       0.001
   0.22220000  0.00000000  0.22220000       0.001
   0.33330000 -0.11110000  0.33330000       0.001
   0.44440000 -0.22220000  0.44440000       0.001
   0.55560000 -0.33340000  0.55560000       0.001
   0.66670000 -0.44450000  0.66670000       0.001
   0.77780000 -0.55560000  0.77780000       0.001
   0.88890000 -0.66670000  0.88890000       0.001
   1.00000000 -0.77780000  1.00000000       0.001
  -0.11110000  0.33330000  0.11110000       0.001
   0.00000000  0.22220000  0.22220000       0.001
   0.11110000  0.11110000  0.33330000       0.001
   0.22220000  0.00000000  0.44440000       0.001
   0.33330000 -0.11110000  0.55550000       0.001
   0.44450000 -0.22230000  0.66670000       0.001
   0.55560000 -0.33340000  0.77780000       0.001
   0.66670000 -0.44450000  0.88890000       0.001
   0.77780000 -0.55560000  1.00000000       0.001
   0.88890000 -0.66670000  1.11110000       0.001
  -0.22220000  0.44440000  0.22220000       0.001
  -0.11110000  0.33330000  0.33330000       0.001
   0.00000000  0.22220000  0.44440000       0.001
   0.11110000  0.11110000  0.55550000       0.001
   0.22220000  0.00000000  0.66660000       0.001
   0.33340000 -0.11120000  0.77780000       0.001
   0.44450000 -0.22230000  0.88890000       0.001
   0.55560000 -0.33340000  1.00000000       0.001
   0.66670000 -0.44450000  1.11110000       0.001
   0.77780000 -0.55560000  1.22220000       0.001
  -0.33330000  0.55550000  0.33330000       0.001
  -0.22220000  0.44440000  0.44440000       0.001
  -0.11110000  0.33330000  0.55550000       0.001
   0.00000000  0.22220000  0.66660000       0.001
   0.11110000  0.11110000  0.77770000       0.001
   0.22230000 -0.00010000  0.88890000       0.001
   0.33340000 -0.11120000  1.00000000       0.001
   0.44450000 -0.22230000  1.11110000       0.001
   0.55560000 -0.33340000  1.22220000       0.001
   0.66670000 -0.44450000  1.33330000       0.001
  -0.44450000  0.66670000  0.44450000       0.001
  -0.33340000  0.55560000  0.55560000       0.001
  -0.22230000  0.44450000  0.66670000       0.001
  -0.11120000  0.33340000  0.77780000       0.001
  -0.00010000  0.22230000  0.88890000       0.001
   0.11110000  0.11110000  1.00010000       0.001
   0.22220000  0.00000000  1.11120000       0.001
   0.33330000 -0.11110000  1.22230000       0.001
   0.44440000 -0.22220000  1.33340000       0.001
   0.55550000 -0.33330000  1.44450000       0.001
  -0.55560000  0.77780000  0.55560000       0.001
  -0.44450000  0.66670000  0.66670000       0.001
  -0.33340000  0.55560000  0.77780000       0.001
  -0.22230000  0.44450000  0.88890000       0.001
  -0.11120000  0.33340000  1.00000000       0.001
   0.00000000  0.22220000  1.11120000       0.001
   0.11110000  0.11110000  1.22230000       0.001
   0.22220000  0.00000000  1.33340000       0.001
   0.33330000 -0.11110000  1.44450000       0.001
   0.44440000 -0.22220000  1.55560000       0.001
  -0.66670000  0.88890000  0.66670000       0.001
  -0.55560000  0.77780000  0.77780000       0.001
  -0.44450000  0.66670000  0.88890000       0.001
  -0.33340000  0.55560000  1.00000000       0.001
  -0.22230000  0.44450000  1.11110000       0.001
  -0.11110000  0.33330000  1.22230000       0.001
   0.00000000  0.22220000  1.33340000       0.001
   0.11110000  0.11110000  1.44450000       0.001
   0.22220000  0.00000000  1.55560000       0.001
   0.33330000 -0.11110000  1.66670000       0.001
  -0.77780000  1.00000000  0.77780000       0.001
  -0.66670000  0.88890000  0.88890000       0.001
  -0.55560000  0.77780000  1.00000000       0.001
  -0.44450000  0.66670000  1.11110000       0.001
  -0.33340000  0.55560000  1.22220000       0.001
  -0.22220000  0.44440000  1.33340000       0.001
  -0.11110000  0.33330000  1.44450000       0.001
   0.00000000  0.22220000  1.55560000       0.001
   0.11110000  0.11110000  1.66670000       0.001
   0.22220000  0.00000000  1.77780000       0.001
  -0.88890000  1.11110000  0.88890000       0.001
  -0.77780000  1.00000000  1.00000000       0.001
  -0.66670000  0.88890000  1.11110000       0.001
  -0.55560000  0.77780000  1.22220000       0.001
  -0.44450000  0.66670000  1.33330000       0.001
  -0.33330000  0.55550000  1.44450000       0.001
  -0.22220000  0.44440000  1.55560000       0.001
  -0.11110000  0.33330000  1.66670000       0.001
   0.00000000  0.22220000  1.77780000       0.001
   0.11110000  0.11110000  1.88890000       0.001
   0.22220000  0.22220000 -0.22220000       0.001
   0.33330000  0.11110000 -0.11110000       0.001
   0.44440000  0.00000000  0.00000000       0.001
   0.55550000 -0.11110000  0.11110000       0.001
   0.66660000 -0.22220000  0.22220000       0.001
   0.77780000 -0.33340000  0.33340000       0.001
   0.88890000 -0.44450000  0.44450000       0.001
   1.00000000 -0.55560000  0.55560000       0.001
   1.11110000 -0.66670000  0.66670000       0.001
   1.22220000 -0.77780000  0.77780000       0.001
   0.11110000  0.33330000 -0.11110000       0.001
   0.22220000  0.22220000  0.00000000       0.001
   0.33330000  0.11110000  0.11110000       0.001
   0.44440000  0.00000000  0.22220000       0.001
   0.55550000 -0.11110000  0.33330000       0.001
   0.66670000 -0.22230000  0.44450000       0.001
   0.77780000 -0.33340000  0.55560000       0.001
   0.88890000 -0.44450000  0.66670000       0.001
   1.00000000 -0.55560000  0.77780000       0.001
   1.11110000 -0.66670000  0.88890000       0.001
   0.00000000  0.44440000  0.00000000       0.001
   0.11110000  0.33330000  0.11110000       0.001
   0.22220000  0.22220000  0.22220000       0.001
   0.33330000  0.11110000  0.33330000       0.001
   0.44440000  0.00000000  0.44440000       0.001
   0.55560000 -0.11120000  0.55560000       0.001
   0.66670000 -0.22230000  0.66670000       0.001
   0.77780000 -0.33340000  0.77780000       0.001
   0.88890000 -0.44450000  0.88890000       0.001
   1.00000000 -0.55560000  1.00000000       0.001
  -0.11110000  0.55550000  0.11110000       0.001
   0.00000000  0.44440000  0.22220000       0.001
   0.11110000  0.33330000  0.33330000       0.001
   0.22220000  0.22220000  0.44440000       0.001
   0.33330000  0.11110000  0.55550000       0.001
   0.44450000 -0.00010000  0.66670000       0.001
   0.55560000 -0.11120000  0.77780000       0.001
   0.66670000 -0.22230000  0.88890000       0.001
   0.77780000 -0.33340000  1.00000000       0.001
   0.88890000 -0.44450000  1.11110000       0.001
  -0.22220000  0.66660000  0.22220000       0.001
  -0.11110000  0.55550000  0.33330000       0.001
   0.00000000  0.44440000  0.44440000       0.001
   0.11110000  0.33330000  0.55550000       0.001
   0.22220000  0.22220000  0.66660000       0.001
   0.33340000  0.11100000  0.77780000       0.001
   0.44450000 -0.00010000  0.88890000       0.001
   0.55560000 -0.11120000  1.00000000       0.001
   0.66670000 -0.22230000  1.11110000       0.001
   0.77780000 -0.33340000  1.22220000       0.001
  -0.33340000  0.77780000  0.33340000       0.001
  -0.22230000  0.66670000  0.44450000       0.001
  -0.11120000  0.55560000  0.55560000       0.001
  -0.00010000  0.44450000  0.66670000       0.001
   0.11100000  0.33340000  0.77780000       0.001
   0.22220000  0.22220000  0.88900000       0.001
   0.33330000  0.11110000  1.00010000       0.001
   0.44440000  0.00000000  1.11120000       0.001
   0.55550000 -0.11110000  1.22230000       0.001
   0.66660000 -0.22220000  1.33340000       0.001
  -0.44450000  0.88890000  0.44450000       0.001
  -0.33340000  0.77780000  0.55560000       0.001
  -0.22230000  0.66670000  0.66670000       0.001
  -0.11120000  0.55560000  0.77780000       0.001
  -0.00010000  0.44450000  0.88890000       0.001
   0.11110000  0.33330000  1.00010000       0.001
   0.22220000  0.22220000  1.11120000       0.001
   0.33330000  0.11110000  1.22230000       0.001
   0.44440000  0.00000000  1.33340000       0.001
   0.55550000 -0.11110000  1.44450000       0.001
  -0.55560000  1.00000000  0.55560000       0.001
  -0.44450000  0.88890000  0.66670000       0.001
  -0.33340000  0.77780000  0.77780000       0.001
  -0.22230000  0.66670000  0.88890000       0.001
  -0.11120000  0.55560000  1.00000000       0.001
   0.00000000  0.44440000  1.11120000       0.001
   0.11110000  0.33330000  1.22230000       0.001
   0.22220000  0.22220000  1.33340000       0.001
   0.33330000  0.11110000  1.44450000       0.001
   0.44440000  0.00000000  1.55560000       0.001
  -0.66670000  1.11110000  0.66670000       0.001
  -0.55560000  1.00000000  0.77780000       0.001
  -0.44450000  0.88890000  0.88890000       0.001
  -0.33340000  0.77780000  1.00000000       0.001
  -0.22230000  0.66670000  1.11110000       0.001
  -0.11110000  0.55550000  1.22230000       0.001
   0.00000000  0.44440000  1.33340000       0.001
   0.11110000  0.33330000  1.44450000       0.001
   0.22220000  0.22220000  1.55560000       0.001
   0.33330000  0.11110000  1.66670000       0.001
  -0.77780000  1.22220000  0.77780000       0.001
  -0.66670000  1.11110000  0.88890000       0.001
  -0.55560000  1.00000000  1.00000000       0.001
  -0.44450000  0.88890000  1.11110000       0.001
  -0.33340000  0.77780000  1.22220000       0.001
  -0.22220000  0.66660000  1.33340000       0.001
  -0.11110000  0.55550000  1.44450000       0.001
   0.00000000  0.44440000  1.55560000       0.001
   0.11110000  0.33330000  1.66670000       0.001
   0.22220000  0.22220000  1.77780000       0.001
   0.33330000  0.33330000 -0.33330000       0.001
   0.44440000  0.22220000 -0.22220000       0.001
   0.55550000  0.11110000 -0.11110000       0.001
   0.66660000  0.00000000  0.00000000       0.001
   0.77770000 -0.11110000  0.11110000       0.001
   0.88890000 -0.22230000  0.22230000       0.001
   1.00000000 -0.33340000  0.33340000       0.001
   1.11110000 -0.44450000  0.44450000       0.001
   1.22220000 -0.55560000  0.55560000       0.001
   1.33330000 -0.66670000  0.66670000       0.001
   0.22220000  0.44440000 -0.22220000       0.001
   0.33330000  0.33330000 -0.11110000       0.001
   0.44440000  0.22220000  0.00000000       0.001
   0.55550000  0.11110000  0.11110000       0.001
   0.66660000  0.00000000  0.22220000       0.001
   0.77780000 -0.11120000  0.33340000       0.001
   0.88890000 -0.22230000  0.44450000       0.001
   1.00000000 -0.33340000  0.55560000       0.001
   1.11110000 -0.44450000  0.66670000       0.001
   1.22220000 -0.55560000  0.77780000       0.001
   0.11110000  0.55550000 -0.11110000       0.001
   0.22220000  0.44440000  0.00000000       0.001
   0.33330000  0.33330000  0.11110000       0.001
   0.44440000  0.22220000  0.22220000       0.001
   0.55550000  0.11110000  0.33330000       0.001
   0.66670000 -0.00010000  0.44450000       0.001
   0.77780000 -0.11120000  0.55560000       0.001
   0.88890000 -0.22230000  0.66670000       0.001
   1.00000000 -0.33340000  0.77780000       0.001
   1.11110000 -0.44450000  0.88890000       0.001
   0.00000000  0.66660000  0.00000000       0.001
   0.11110000  0.55550000  0.11110000       0.001
   0.22220000  0.44440000  0.22220000       0.001
   0.33330000  0.33330000  0.33330000       0.001
   0.44440000  0.22220000  0.44440000       0.001
   0.55560000  0.11100000  0.55560000       0.001
   0.66670000 -0.00010000  0.66670000       0.001
   0.77780000 -0.11120000  0.77780000       0.001
   0.88890000 -0.22230000  0.88890000       0.001
   1.00000000 -0.33340000  1.00000000       0.001
  -0.11110000  0.77770000  0.11110000       0.001
   0.00000000  0.66660000  0.22220000       0.001
   0.11110000  0.55550000  0.33330000       0.001
   0.22220000  0.44440000  0.44440000       0.001
   0.33330000  0.33330000  0.55550000       0.001
   0.44450000  0.22210000  0.66670000       0.001
   0.55560000  0.11100000  0.77780000       0.001
   0.66670000 -0.00010000  0.88890000       0.001
   0.77780000 -0.11120000  1.00000000       0.001
   0.88890000 -0.22230000  1.11110000       0.001
  -0.22230000  0.88890000  0.22230000       0.001
  -0.11120000  0.77780000  0.33340000       0.001
  -0.00010000  0.66670000  0.44450000       0.001
   0.11100000  0.55560000  0.55560000       0.001
   0.22210000  0.44450000  0.66670000       0.001
   0.33330000  0.33330000  0.77790000       0.001
   0.44440000  0.22220000  0.88900000       0.001
   0.55550000  0.11110000  1.00010000       0.001
   0.66660000  0.00000000  1.11120000       0.001
   0.77770000 -0.11110000  1.22230000       0.001
  -0.33340000  1.00000000  0.33340000       0.001
  -0.22230000  0.88890000  0.44450000       0.001
  -0.11120000  0.77780000  0.55560000       0.001
  -0.00010000  0.66670000  0.66670000       0.001
   0.11100000  0.55560000  0.77780000       0.001
   0.22220000  0.44440000  0.88900000       0.001
   0.33330000  0.33330000  1.00010000       0.001
   0.44440000  0.22220000  1.11120000       0.001
   0.55550000  0.11110000  1.22230000       0.001
   0.66660000  0.00000000  1.33340000       0.001
  -0.44450000  1.11110000  0.44450000       0.001
  -0.33340000  1.00000000  0.55560000       0.001
  -0.22230000  0.88890000  0.66670000       0.001
  -0.11120000  0.77780000  0.77780000       0.001
  -0.00010000  0.66670000  0.88890000       0.001
   0.11110000  0.55550000  1.00010000       0.001
   0.22220000  0.44440000  1.11120000       0.001
   0.33330000  0.33330000  1.22230000       0.001
   0.44440000  0.22220000  1.33340000       0.001
   0.55550000  0.11110000  1.44450000       0.001
  -0.55560000  1.22220000  0.55560000       0.001
  -0.44450000  1.11110000  0.66670000       0.001
  -0.33340000  1.00000000  0.77780000       0.001
  -0.22230000  0.88890000  0.88890000       0.001
  -0.11120000  0.77780000  1.00000000       0.001
   0.00000000  0.66660000  1.11120000       0.001
   0.11110000  0.55550000  1.22230000       0.001
   0.22220000  0.44440000  1.33340000       0.001
   0.33330000  0.33330000  1.44450000       0.001
   0.44440000  0.22220000  1.55560000       0.001
  -0.66670000  1.33330000  0.66670000       0.001
  -0.55560000  1.22220000  0.77780000       0.001
  -0.44450000  1.11110000  0.88890000       0.001
  -0.33340000  1.00000000  1.00000000       0.001
  -0.22230000  0.88890000  1.11110000       0.001
  -0.11110000  0.77770000  1.22230000       0.001
   0.00000000  0.66660000  1.33340000       0.001
   0.11110000  0.55550000  1.44450000       0.001
   0.22220000  0.44440000  1.55560000       0.001
   0.33330000  0.33330000  1.66670000       0.001
   0.44440000  0.44440000 -0.44440000       0.001
   0.55550000  0.33330000 -0.33330000       0.001
   0.66660000  0.22220000 -0.22220000       0.001
   0.77770000  0.11110000 -0.11110000       0.001
   0.88880000  0.00000000  0.00000000       0.001
   1.00000000 -0.11120000  0.11120000       0.001
   1.11110000 -0.22230000  0.22230000       0.001
   1.22220000 -0.33340000  0.33340000       0.001
   1.33330000 -0.44450000  0.44450000       0.001
   1.44440000 -0.55560000  0.55560000       0.001
   0.33330000  0.55550000 -0.33330000       0.001
   0.44440000  0.44440000 -0.22220000       0.001
   0.55550000  0.33330000 -0.11110000       0.001
   0.66660000  0.22220000  0.00000000       0.001
   0.77770000  0.11110000  0.11110000       0.001
   0.88890000 -0.00010000  0.22230000       0.001
   1.00000000 -0.11120000  0.33340000       0.001
   1.11110000 -0.22230000  0.44450000       0.001
   1.22220000 -0.33340000  0.55560000       0.001
   1.33330000 -0.44450000  0.66670000       0.001
   0.22220000  0.66660000 -0.22220000       0.001
   0.33330000  0.55550000 -0.11110000       0.001
   0.44440000  0.44440000  0.00000000       0.001
   0.55550000  0.33330000  0.11110000       0.001
   0.66660000  0.22220000  0.22220000       0.001
   0.77780000  0.11100000  0.33340000       0.001
   0.88890000 -0.00010000  0.44450000       0.001
   1.00000000 -0.11120000  0.55560000       0.001
   1.11110000 -0.22230000  0.66670000       0.001
   1.22220000 -0.33340000  0.77780000       0.001
   0.11110000  0.77770000 -0.11110000       0.001
   0.22220000  0.66660000  0.00000000       0.001
   0.33330000  0.55550000  0.11110000       0.001
   0.44440000  0.44440000  0.22220000       0.001
   0.55550000  0.33330000  0.33330000       0.001
   0.66670000  0.22210000  0.44450000       0.001
   0.77780000  0.11100000  0.55560000       0.001
   0.88890000 -0.00010000  0.66670000       0.001
   1.00000000 -0.11120000  0.77780000       0.001
   1.11110000 -0.22230000  0.88890000       0.001
   0.00000000  0.88880000  0.00000000       0.001
   0.11110000  0.77770000  0.11110000       0.001
   0.22220000  0.66660000  0.22220000       0.001
   0.33330000  0.55550000  0.33330000       0.001
   0.44440000  0.44440000  0.44440000       0.001
   0.55560000  0.33320000  0.55560000       0.001
   0.66670000  0.22210000  0.66670000       0.001
   0.77780000  0.11100000  0.77780000       0.001
   0.88890000 -0.00010000  0.88890000       0.001
   1.00000000 -0.11120000  1.00000000       0.001
  -0.11120000  1.00000000  0.11120000       0.001
  -0.00010000  0.88890000  0.22230000       0.001
   0.11100000  0.77780000  0.33340000       0.001
   0.22210000  0.66670000  0.44450000       0.001
   0.33320000  0.55560000  0.55560000       0.001
   0.44440000  0.44440000  0.66680000       0.001
   0.55550000  0.33330000  0.77790000       0.001
   0.66660000  0.22220000  0.88900000       0.001
   0.77770000  0.11110000  1.00010000       0.001
   0.88880000  0.00000000  1.11120000       0.001
  -0.22230000  1.11110000  0.22230000       0.001
  -0.11120000  1.00000000  0.33340000       0.001
  -0.00010000  0.88890000  0.44450000       0.001
   0.11100000  0.77780000  0.55560000       0.001
   0.22210000  0.66670000  0.66670000       0.001
   0.33330000  0.55550000  0.77790000       0.001
   0.44440000  0.44440000  0.88900000       0.001
   0.55550000  0.33330000  1.00010000       0.001
   0.66660000  0.22220000  1.11120000       0.001
   0.77770000  0.11110000  1.22230000       0.001
  -0.33340000  1.22220000  0.33340000       0.001
  -0.22230000  1.11110000  0.44450000       0.001
  -0.11120000  1.00000000  0.55560000       0.001
  -0.00010000  0.88890000  0.66670000       0.001
   0.11100000  0.77780000  0.77780000       0.001
   0.22220000  0.66660000  0.88900000       0.001
   0.33330000  0.55550000  1.00010000       0.001
   0.44440000  0.44440000  1.11120000       0.001
   0.55550000  0.33330000  1.22230000       0.001
   0.66660000  0.22220000  1.33340000       0.001
  -0.44450000  1.33330000  0.44450000       0.001
  -0.33340000  1.22220000  0.55560000       0.001
  -0.22230000  1.11110000  0.66670000       0.001
  -0.11120000  1.00000000  0.77780000       0.001
  -0.00010000  0.88890000  0.88890000       0.001
   0.11110000  0.77770000  1.00010000       0.001
   0.22220000  0.66660000  1.11120000       0.001
   0.33330000  0.55550000  1.22230000       0.001
   0.44440000  0.44440000  1.33340000       0.001
   0.55550000  0.33330000  1.44450000       0.001
  -0.55560000  1.44440000  0.55560000       0.001
  -0.44450000  1.33330000  0.66670000       0.001
  -0.33340000  1.22220000  0.77780000       0.001
  -0.22230000  1.11110000  0.88890000       0.001
  -0.11120000  1.00000000  1.00000000       0.001
   0.00000000  0.88880000  1.11120000       0.001
   0.11110000  0.77770000  1.22230000       0.001
   0.22220000  0.66660000  1.33340000       0.001
   0.33330000  0.55550000  1.44450000       0.001
   0.44440000  0.44440000  1.55560000       0.001
   0.55560000  0.55560000 -0.55560000       0.001
   0.66670000  0.44450000 -0.44450000       0.001
   0.77780000  0.33340000 -0.33340000       0.001
   0.88890000  0.22230000 -0.22230000       0.001
   1.00000000  0.11120000 -0.11120000       0.001
   1.11120000  0.00000000  0.00000000       0.001
   1.22230000 -0.11110000  0.11110000       0.001
   1.33340000 -0.22220000  0.22220000       0.001
   1.44450000 -0.33330000  0.33330000       0.001
   1.55560000 -0.44440000  0.44440000       0.001
   0.44450000  0.66670000 -0.44450000       0.001
   0.55560000  0.55560000 -0.33340000       0.001
   0.66670000  0.44450000 -0.22230000       0.001
   0.77780000  0.33340000 -0.11120000       0.001
   0.88890000  0.22230000 -0.00010000       0.001
   1.00010000  0.11110000  0.11110000       0.001
   1.11120000  0.00000000  0.22220000       0.001
   1.22230000 -0.11110000  0.33330000       0.001
   1.33340000 -0.22220000  0.44440000       0.001
   1.44450000 -0.33330000  0.55550000       0.001
   0.33340000  0.77780000 -0.33340000       0.001
   0.44450000  0.66670000 -0.22230000       0.001
   0.55560000  0.55560000 -0.11120000       0.001
   0.66670000  0.44450000 -0.00010000       0.001
   0.77780000  0.33340000  0.11100000       0.001
   0.88900000  0.22220000  0.22220000       0.001
   1.00010000  0.11110000  0.33330000       0.001
   1.11120000  0.00000000  0.44440000       0.001
   1.22230000 -0.11110000  0.55550000       0.001
   1.33340000 -0.22220000  0.66660000       0.001
   0.22230000  0.88890000 -0.22230000       0.001
   0.33340000  0.77780000 -0.11120000       0.001
   0.44450000  0.66670000 -0.00010000       0.001
   0.55560000  0.55560000  0.11100000       0.001
   0.66670000  0.44450000  0.22210000       0.001
   0.77790000  0.33330000  0.33330000       0.001
   0.88900000  0.22220000  0.44440000       0.001
   1.00010000  0.11110000  0.55550000       0.001
   1.11120000  0.00000000  0.66660000       0.001
   1.22230000 -0.11110000  0.77770000       0.001
   0.11120000  1.00000000 -0.11120000       0.001
   0.22230000  0.88890000 -0.00010000       0.001
   0.33340000  0.77780000  0.11100000       0.001
   0.44450000  0.66670000  0.22210000       0.001
   0.55560000  0.55560000  0.33320000       0.001
   0.66680000  0.44440000  0.44440000       0.001
   0.77790000  0.33330000  0.55550000       0.001
   0.88900000  0.22220000  0.66660000       0.001
   1.00010000  0.11110000  0.77770000       0.001
   1.11120000  0.00000000  0.88880000       0.001
   0.00000000  1.11120000  0.00000000       0.001
   0.11110000  1.00010000  0.11110000       0.001
   0.22220000  0.88900000  0.22220000       0.001
   0.33330000  0.77790000  0.33330000       0.001
   0.44440000  0.66680000  0.44440000       0.001
   0.55560000  0.55560000  0.55560000       0.001
   0.66670000  0.44450000  0.66670000       0.001
   0.77780000  0.33340000  0.77780000       0.001
   0.88890000  0.22230000  0.88890000       0.001
   1.00000000  0.11120000  1.00000000       0.001
  -0.11110000  1.22230000  0.11110000       0.001
   0.00000000  1.11120000  0.22220000       0.001
   0.11110000  1.00010000  0.33330000       0.001
   0.22220000  0.88900000  0.44440000       0.001
   0.33330000  0.77790000  0.55550000       0.001
   0.44450000  0.66670000  0.66670000       0.001
   0.55560000  0.55560000  0.77780000       0.001
   0.66670000  0.44450000  0.88890000       0.001
   0.77780000  0.33340000  1.00000000       0.001
   0.88890000  0.22230000  1.11110000       0.001
  -0.22220000  1.33340000  0.22220000       0.001
  -0.11110000  1.22230000  0.33330000       0.001
   0.00000000  1.11120000  0.44440000       0.001
   0.11110000  1.00010000  0.55550000       0.001
   0.22220000  0.88900000  0.66660000       0.001
   0.33340000  0.77780000  0.77780000       0.001
   0.44450000  0.66670000  0.88890000       0.001
   0.55560000  0.55560000  1.00000000       0.001
   0.66670000  0.44450000  1.11110000       0.001
   0.77780000  0.33340000  1.22220000       0.001
  -0.33330000  1.44450000  0.33330000       0.001
  -0.22220000  1.33340000  0.44440000       0.001
  -0.11110000  1.22230000  0.55550000       0.001
   0.00000000  1.11120000  0.66660000       0.001
   0.11110000  1.00010000  0.77770000       0.001
   0.22230000  0.88890000  0.88890000       0.001
   0.33340000  0.77780000  1.00000000       0.001
   0.44450000  0.66670000  1.11110000       0.001
   0.55560000  0.55560000  1.22220000       0.001
   0.66670000  0.44450000  1.33330000       0.001
  -0.44440000  1.55560000  0.44440000       0.001
  -0.33330000  1.44450000  0.55550000       0.001
  -0.22220000  1.33340000  0.66660000       0.001
  -0.11110000  1.22230000  0.77770000       0.001
   0.00000000  1.11120000  0.88880000       0.001
   0.11120000  1.00000000  1.00000000       0.001
   0.22230000  0.88890000  1.11110000       0.001
   0.33340000  0.77780000  1.22220000       0.001
   0.44450000  0.66670000  1.33330000       0.001
   0.55560000  0.55560000  1.44440000       0.001
   0.66670000  0.66670000 -0.66670000       0.001
   0.77780000  0.55560000 -0.55560000       0.001
   0.88890000  0.44450000 -0.44450000       0.001
   1.00000000  0.33340000 -0.33340000       0.001
   1.11110000  0.22230000 -0.22230000       0.001
   1.22230000  0.11110000 -0.11110000       0.001
   1.33340000  0.00000000  0.00000000       0.001
   1.44450000 -0.11110000  0.11110000       0.001
   1.55560000 -0.22220000  0.22220000       0.001
   1.66670000 -0.33330000  0.33330000       0.001
   0.55560000  0.77780000 -0.55560000       0.001
   0.66670000  0.66670000 -0.44450000       0.001
   0.77780000  0.55560000 -0.33340000       0.001
   0.88890000  0.44450000 -0.22230000       0.001
   1.00000000  0.33340000 -0.11120000       0.001
   1.11120000  0.22220000  0.00000000       0.001
   1.22230000  0.11110000  0.11110000       0.001
   1.33340000  0.00000000  0.22220000       0.001
   1.44450000 -0.11110000  0.33330000       0.001
   1.55560000 -0.22220000  0.44440000       0.001
   0.44450000  0.88890000 -0.44450000       0.001
   0.55560000  0.77780000 -0.33340000       0.001
   0.66670000  0.66670000 -0.22230000       0.001
   0.77780000  0.55560000 -0.11120000       0.001
   0.88890000  0.44450000 -0.00010000       0.001
   1.00010000  0.33330000  0.11110000       0.001
   1.11120000  0.22220000  0.22220000       0.001
   1.22230000  0.11110000  0.33330000       0.001
   1.33340000  0.00000000  0.44440000       0.001
   1.44450000 -0.11110000  0.55550000       0.001
   0.33340000  1.00000000 -0.33340000       0.001
   0.44450000  0.88890000 -0.22230000       0.001
   0.55560000  0.77780000 -0.11120000       0.001
   0.66670000  0.66670000 -0.00010000       0.001
   0.77780000  0.55560000  0.11100000       0.001
   0.88900000  0.44440000  0.22220000       0.001
   1.00010000  0.33330000  0.33330000       0.001
   1.11120000  0.22220000  0.44440000       0.001
   1.22230000  0.11110000  0.55550000       0.001
   1.33340000  0.00000000  0.66660000       0.001
   0.22230000  1.11110000 -0.22230000       0.001
   0.33340000  1.00000000 -0.11120000       0.001
   0.44450000  0.88890000 -0.00010000       0.001
   0.55560000  0.77780000  0.11100000       0.001
   0.66670000  0.66670000  0.22210000       0.001
   0.77790000  0.55550000  0.33330000       0.001
   0.88900000  0.44440000  0.44440000       0.001
   1.00010000  0.33330000  0.55550000       0.001
   1.11120000  0.22220000  0.66660000       0.001
   1.22230000  0.11110000  0.77770000       0.001
   0.11110000  1.22230000 -0.11110000       0.001
   0.22220000  1.11120000  0.00000000       0.001
   0.33330000  1.00010000  0.11110000       0.001
   0.44440000  0.88900000  0.22220000       0.001
   0.55550000  0.77790000  0.33330000       0.001
   0.66670000  0.66670000  0.44450000       0.001
   0.77780000  0.55560000  0.55560000       0.001
   0.88890000  0.44450000  0.66670000       0.001
   1.00000000  0.33340000  0.77780000       0.001
   1.11110000  0.22230000  0.88890000       0.001
   0.00000000  1.33340000  0.00000000       0.001
   0.11110000  1.22230000  0.11110000       0.001
   0.22220000  1.11120000  0.22220000       0.001
   0.33330000  1.00010000  0.33330000       0.001
   0.44440000  0.88900000  0.44440000       0.001
   0.55560000  0.77780000  0.55560000       0.001
   0.66670000  0.66670000  0.66670000       0.001
   0.77780000  0.55560000  0.77780000       0.001
   0.88890000  0.44450000  0.88890000       0.001
   1.00000000  0.33340000  1.00000000       0.001
  -0.11110000  1.44450000  0.11110000       0.001
   0.00000000  1.33340000  0.22220000       0.001
   0.11110000  1.22230000  0.33330000       0.001
   0.22220000  1.11120000  0.44440000       0.001
   0.33330000  1.00010000  0.55550000       0.001
   0.44450000  0.88890000  0.66670000       0.001
   0.55560000  0.77780000  0.77780000       0.001
   0.66670000  0.66670000  0.88890000       0.001
   0.77780000  0.55560000  1.00000000       0.001
   0.88890000  0.44450000  1.11110000       0.001
  -0.22220000  1.55560000  0.22220000       0.001
  -0.11110000  1.44450000  0.33330000       0.001
   0.00000000  1.33340000  0.44440000       0.001
   0.11110000  1.22230000  0.55550000       0.001
   0.22220000  1.11120000  0.66660000       0.001
   0.33340000  1.00000000  0.77780000       0.001
   0.44450000  0.88890000  0.88890000       0.001
   0.55560000  0.77780000  1.00000000       0.001
   0.66670000  0.66670000  1.11110000       0.001
   0.77780000  0.55560000  1.22220000       0.001
  -0.33330000  1.66670000  0.33330000       0.001
  -0.22220000  1.55560000  0.44440000       0.001
  -0.11110000  1.44450000  0.55550000       0.001
   0.00000000  1.33340000  0.66660000       0.001
   0.11110000  1.22230000  0.77770000       0.001
   0.22230000  1.11110000  0.88890000       0.001
   0.33340000  1.00000000  1.00000000       0.001
   0.44450000  0.88890000  1.11110000       0.001
   0.55560000  0.77780000  1.22220000       0.001
   0.66670000  0.66670000  1.33330000       0.001
   0.77780000  0.77780000 -0.77780000       0.001
   0.88890000  0.66670000 -0.66670000       0.001
   1.00000000  0.55560000 -0.55560000       0.001
   1.11110000  0.44450000 -0.44450000       0.001
   1.22220000  0.33340000 -0.33340000       0.001
   1.33340000  0.22220000 -0.22220000       0.001
   1.44450000  0.11110000 -0.11110000       0.001
   1.55560000  0.00000000  0.00000000       0.001
   1.66670000 -0.11110000  0.11110000       0.001
   1.77780000 -0.22220000  0.22220000       0.001
   0.66670000  0.88890000 -0.66670000       0.001
   0.77780000  0.77780000 -0.55560000       0.001
   0.88890000  0.66670000 -0.44450000       0.001
   1.00000000  0.55560000 -0.33340000       0.001
   1.11110000  0.44450000 -0.22230000       0.001
   1.22230000  0.33330000 -0.11110000       0.001
   1.33340000  0.22220000  0.00000000       0.001
   1.44450000  0.11110000  0.11110000       0.001
   1.55560000  0.00000000  0.22220000       0.001
   1.66670000 -0.11110000  0.33330000       0.001
   0.55560000  1.00000000 -0.55560000       0.001
   0.66670000  0.88890000 -0.44450000       0.001
   0.77780000  0.77780000 -0.33340000       0.001
   0.88890000  0.66670000 -0.22230000       0.001
   1.00000000  0.55560000 -0.11120000       0.001
   1.11120000  0.44440000  0.00000000       0.001
   1.22230000  0.33330000  0.11110000       0.001
   1.33340000  0.22220000  0.22220000       0.001
   1.44450000  0.11110000  0.33330000       0.001
   1.55560000  0.00000000  0.44440000       0.001
   0.44450000  1.11110000 -0.44450000       0.001
   0.55560000  1.00000000 -0.33340000       0.001
   0.66670000  0.88890000 -0.22230000       0.001
   0.77780000  0.77780000 -0.11120000       0.001
   0.88890000  0.66670000 -0.00010000       0.001
   1.00010000  0.55550000  0.11110000       0.001
   1.11120000  0.44440000  0.22220000       0.001
   1.22230000  0.33330000  0.33330000       0.001
   1.33340000  0.22220000  0.44440000       0.001
   1.44450000  0.11110000  0.55550000       0.001
   0.33340000  1.22220000 -0.33340000       0.001
   0.44450000  1.11110000 -0.22230000       0.001
   0.55560000  1.00000000 -0.11120000       0.001
   0.66670000  0.88890000 -0.00010000       0.001
   0.77780000  0.77780000  0.11100000       0.001
   0.88900000  0.66660000  0.22220000       0.001
   1.00010000  0.55550000  0.33330000       0.001
   1.11120000  0.44440000  0.44440000       0.001
   1.22230000  0.33330000  0.55550000       0.001
   1.33340000  0.22220000  0.66660000       0.001
   0.22220000  1.33340000 -0.22220000       0.001
   0.33330000  1.22230000 -0.11110000       0.001
   0.44440000  1.11120000  0.00000000       0.001
   0.55550000  1.00010000  0.11110000       0.001
   0.66660000  0.88900000  0.22220000       0.001
   0.77780000  0.77780000  0.33340000       0.001
   0.88890000  0.66670000  0.44450000       0.001
   1.00000000  0.55560000  0.55560000       0.001
   1.11110000  0.44450000  0.66670000       0.001
   1.22220000  0.33340000  0.77780000       0.001
   0.11110000  1.44450000 -0.11110000       0.001
   0.22220000  1.33340000  0.00000000       0.001
   0.33330000  1.22230000  0.11110000       0.001
   0.44440000  1.11120000  0.22220000       0.001
   0.55550000  1.00010000  0.33330000       0.001
   0.66670000  0.88890000  0.44450000       0.001
   0.77780000  0.77780000  0.55560000       0.001
   0.88890000  0.66670000  0.66670000       0.001
   1.00000000  0.55560000  0.77780000       0.001
   1.11110000  0.44450000  0.88890000       0.001
   0.00000000  1.55560000  0.00000000       0.001
   0.11110000  1.44450000  0.11110000       0.001
   0.22220000  1.33340000  0.22220000       0.001
   0.33330000  1.22230000  0.33330000       0.001
   0.44440000  1.11120000  0.44440000       0.001
   0.55560000  1.00000000  0.55560000       0.001
   0.66670000  0.88890000  0.66670000       0.001
   0.77780000  0.77780000  0.77780000       0.001
   0.88890000  0.66670000  0.88890000       0.001
   1.00000000  0.55560000  1.00000000       0.001
  -0.11110000  1.66670000  0.11110000       0.001
   0.00000000  1.55560000  0.22220000       0.001
   0.11110000  1.44450000  0.33330000       0.001
   0.22220000  1.33340000  0.44440000       0.001
   0.33330000  1.22230000  0.55550000       0.001
   0.44450000  1.11110000  0.66670000       0.001
   0.55560000  1.00000000  0.77780000       0.001
   0.66670000  0.88890000  0.88890000       0.001
   0.77780000  0.77780000  1.00000000       0.001
   0.88890000  0.66670000  1.11110000       0.001
  -0.22220000  1.77780000  0.22220000       0.001
  -0.11110000  1.66670000  0.33330000       0.001
   0.00000000  1.55560000  0.44440000       0.001
   0.11110000  1.44450000  0.55550000       0.001
   0.22220000  1.33340000  0.66660000       0.001
   0.33340000  1.22220000  0.77780000       0.001
   0.44450000  1.11110000  0.88890000       0.001
   0.55560000  1.00000000  1.00000000       0.001
   0.66670000  0.88890000  1.11110000       0.001
   0.77780000  0.77780000  1.22220000       0.001
   0.88890000  0.88890000 -0.88890000       0.001
   1.00000000  0.77780000 -0.77780000       0.001
   1.11110000  0.66670000 -0.66670000       0.001
   1.22220000  0.55560000 -0.55560000       0.001
   1.33330000  0.44450000 -0.44450000       0.001
   1.44450000  0.33330000 -0.33330000       0.001
   1.55560000  0.22220000 -0.22220000       0.001
   1.66670000  0.11110000 -0.11110000       0.001
   1.77780000  0.00000000  0.00000000       0.001
   1.88890000 -0.11110000  0.11110000       0.001
   0.77780000  1.00000000 -0.77780000       0.001
   0.88890000  0.88890000 -0.66670000       0.001
   1.00000000  0.77780000 -0.55560000       0.001
   1.11110000  0.66670000 -0.44450000       0.001
   1.22220000  0.55560000 -0.33340000       0.001
   1.33340000  0.44440000 -0.22220000       0.001
   1.44450000  0.33330000 -0.11110000       0.001
   1.55560000  0.22220000  0.00000000       0.001
   1.66670000  0.11110000  0.11110000       0.001
   1.77780000  0.00000000  0.22220000       0.001
   0.66670000  1.11110000 -0.66670000       0.001
   0.77780000  1.00000000 -0.55560000       0.001
   0.88890000  0.88890000 -0.44450000       0.001
   1.00000000  0.77780000 -0.33340000       0.001
   1.11110000  0.66670000 -0.22230000       0.001
   1.22230000  0.55550000 -0.11110000       0.001
   1.33340000  0.44440000  0.00000000       0.001
   1.44450000  0.33330000  0.11110000       0.001
   1.55560000  0.22220000  0.22220000       0.001
   1.66670000  0.11110000  0.33330000       0.001
   0.55560000  1.22220000 -0.55560000       0.001
   0.66670000  1.11110000 -0.44450000       0.001
   0.77780000  1.00000000 -0.33340000       0.001
   0.88890000  0.88890000 -0.22230000       0.001
   1.00000000  0.77780000 -0.11120000       0.001
   1.11120000  0.66660000  0.00000000       0.001
   1.22230000  0.55550000  0.11110000       0.001
   1.33340000  0.44440000  0.22220000       0.001
   1.44450000  0.33330000  0.33330000       0.001
   1.55560000  0.22220000  0.44440000       0.001
   0.44450000  1.33330000 -0.44450000       0.001
   0.55560000  1.22220000 -0.33340000       0.001
   0.66670000  1.11110000 -0.22230000       0.001
   0.77780000  1.00000000 -0.11120000       0.001
   0.88890000  0.88890000 -0.00010000       0.001
   1.00010000  0.77770000  0.11110000       0.001
   1.11120000  0.66660000  0.22220000       0.001
   1.22230000  0.55550000  0.33330000       0.001
   1.33340000  0.44440000  0.44440000       0.001
   1.44450000  0.33330000  0.55550000       0.001
   0.33330000  1.44450000 -0.33330000       0.001
   0.44440000  1.33340000 -0.22220000       0.001
   0.55550000  1.22230000 -0.11110000       0.001
   0.66660000  1.11120000  0.00000000       0.001
   0.77770000  1.00010000  0.11110000       0.001
   0.88890000  0.88890000  0.22230000       0.001
   1.00000000  0.77780000  0.33340000       0.001
   1.11110000  0.66670000  0.44450000       0.001
   1.22220000  0.55560000  0.55560000       0.001
   1.33330000  0.44450000  0.66670000       0.001
   0.22220000  1.55560000 -0.22220000       0.001
   0.33330000  1.44450000 -0.11110000       0.001
   0.44440000  1.33340000  0.00000000       0.001
   0.55550000  1.22230000  0.11110000       0.001
   0.66660000  1.11120000  0.22220000       0.001
   0.77780000  1.00000000  0.33340000       0.001
   0.88890000  0.88890000  0.44450000       0.001
   1.00000000  0.77780000  0.55560000       0.001
   1.11110000  0.66670000  0.66670000       0.001
   1.22220000  0.55560000  0.77780000       0.001
   0.11110000  1.66670000 -0.11110000       0.001
   0.22220000  1.55560000  0.00000000       0.001
   0.33330000  1.44450000  0.11110000       0.001
   0.44440000  1.33340000  0.22220000       0.001
   0.55550000  1.22230000  0.33330000       0.001
   0.66670000  1.11110000  0.44450000       0.001
   0.77780000  1.00000000  0.55560000       0.001
   0.88890000  0.88890000  0.66670000       0.001
   1.00000000  0.77780000  0.77780000       0.001
   1.11110000  0.66670000  0.88890000       0.001
   0.00000000  1.77780000  0.00000000       0.001
   0.11110000  1.66670000  0.11110000       0.001
   0.22220000  1.55560000  0.22220000       0.001
   0.33330000  1.44450000  0.33330000       0.001
   0.44440000  1.33340000  0.44440000       0.001
   0.55560000  1.22220000  0.55560000       0.001
   0.66670000  1.11110000  0.66670000       0.001
   0.77780000  1.00000000  0.77780000       0.001
   0.88890000  0.88890000  0.88890000       0.001
   1.00000000  0.77780000  1.00000000       0.001
  -0.11110000  1.88890000  0.11110000       0.001
   0.00000000  1.77780000  0.22220000       0.001
   0.11110000  1.66670000  0.33330000       0.001
   0.22220000  1.55560000  0.44440000       0.001
   0.33330000  1.44450000  0.55550000       0.001
   0.44450000  1.33330000  0.66670000       0.001
   0.55560000  1.22220000  0.77780000       0.001
   0.66670000  1.11110000  0.88890000       0.001
   0.77780000  1.00000000  1.00000000       0.001
   0.88890000  0.88890000  1.11110000       0.001
   1.00000000  1.00000000 -1.00000000       0.001
   1.11110000  0.88890000 -0.88890000       0.001
   1.22220000  0.77780000 -0.77780000       0.001
   1.33330000  0.66670000 -0.66670000       0.001
   1.44440000  0.55560000 -0.55560000       0.001
   1.55560000  0.44440000 -0.44440000       0.001
   1.66670000  0.33330000 -0.33330000       0.001
   1.77780000  0.22220000 -0.22220000       0.001
   1.88890000  0.11110000 -0.11110000       0.001
   2.00000000  0.00000000  0.00000000       0.001
   0.88890000  1.11110000 -0.88890000       0.001
   1.00000000  1.00000000 -0.77780000       0.001
   1.11110000  0.88890000 -0.66670000       0.001
   1.22220000  0.77780000 -0.55560000       0.001
   1.33330000  0.66670000 -0.44450000       0.001
   1.44450000  0.55550000 -0.33330000       0.001
   1.55560000  0.44440000 -0.22220000       0.001
   1.66670000  0.33330000 -0.11110000       0.001
   1.77780000  0.22220000  0.00000000       0.001
   1.88890000  0.11110000  0.11110000       0.001
   0.77780000  1.22220000 -0.77780000       0.001
   0.88890000  1.11110000 -0.66670000       0.001
   1.00000000  1.00000000 -0.55560000       0.001
   1.11110000  0.88890000 -0.44450000       0.001
   1.22220000  0.77780000 -0.33340000       0.001
   1.33340000  0.66660000 -0.22220000       0.001
   1.44450000  0.55550000 -0.11110000       0.001
   1.55560000  0.44440000  0.00000000       0.001
   1.66670000  0.33330000  0.11110000       0.001
   1.77780000  0.22220000  0.22220000       0.001
   0.66670000  1.33330000 -0.66670000       0.001
   0.77780000  1.22220000 -0.55560000       0.001
   0.88890000  1.11110000 -0.44450000       0.001
   1.00000000  1.00000000 -0.33340000       0.001
   1.11110000  0.88890000 -0.22230000       0.001
   1.22230000  0.77770000 -0.11110000       0.001
   1.33340000  0.66660000  0.00000000       0.001
   1.44450000  0.55550000  0.11110000       0.001
   1.55560000  0.44440000  0.22220000       0.001
   1.66670000  0.33330000  0.33330000       0.001
   0.55560000  1.44440000 -0.55560000       0.001
   0.66670000  1.33330000 -0.44450000       0.001
   0.77780000  1.22220000 -0.33340000       0.001
   0.88890000  1.11110000 -0.22230000       0.001
   1.00000000  1.00000000 -0.11120000       0.001
   1.11120000  0.88880000  0.00000000       0.001
   1.22230000  0.77770000  0.11110000       0.001
   1.33340000  0.66660000  0.22220000       0.001
   1.44450000  0.55550000  0.33330000       0.001
   1.55560000  0.44440000  0.44440000       0.001
   0.44440000  1.55560000 -0.44440000       0.001
   0.55550000  1.44450000 -0.33330000       0.001
   0.66660000  1.33340000 -0.22220000       0.001
   0.77770000  1.22230000 -0.11110000       0.001
   0.88880000  1.11120000  0.00000000       0.001
   1.00000000  1.00000000  0.11120000       0.001
   1.11110000  0.88890000  0.22230000       0.001
   1.22220000  0.77780000  0.33340000       0.001
   1.33330000  0.66670000  0.44450000       0.001
   1.44440000  0.55560000  0.55560000       0.001
   0.33330000  1.66670000 -0.33330000       0.001
   0.44440000  1.55560000 -0.22220000       0.001
   0.55550000  1.44450000 -0.11110000       0.001
   0.66660000  1.33340000  0.00000000       0.001
   0.77770000  1.22230000  0.11110000       0.001
   0.88890000  1.11110000  0.22230000       0.001
   1.00000000  1.00000000  0.33340000       0.001
   1.11110000  0.88890000  0.44450000       0.001
   1.22220000  0.77780000  0.55560000       0.001
   1.33330000  0.66670000  0.66670000       0.001
   0.22220000  1.77780000 -0.22220000       0.001
   0.33330000  1.66670000 -0.11110000       0.001
   0.44440000  1.55560000  0.00000000       0.001
   0.55550000  1.44450000  0.11110000       0.001
   0.66660000  1.33340000  0.22220000       0.001
   0.77780000  1.22220000  0.33340000       0.001
   0.88890000  1.11110000  0.44450000       0.001
   1.00000000  1.00000000  0.55560000       0.001
   1.11110000  0.88890000  0.66670000       0.001
   1.22220000  0.77780000  0.77780000       0.001
   0.11110000  1.88890000 -0.11110000       0.001
   0.22220000  1.77780000  0.00000000       0.001
   0.33330000  1.66670000  0.11110000       0.001
   0.44440000  1.55560000  0.22220000       0.001
   0.55550000  1.44450000  0.33330000       0.001
   0.66670000  1.33330000  0.44450000       0.001
   0.77780000  1.22220000  0.55560000       0.001
   0.88890000  1.11110000  0.66670000       0.001
   1.00000000  1.00000000  0.77780000       0.001
   1.11110000  0.88890000  0.88890000       0.001
   0.00000000  2.00000000  0.00000000       0.001
   0.11110000  1.88890000  0.11110000       0.001
   0.22220000  1.77780000  0.22220000       0.001
   0.33330000  1.66670000  0.33330000       0.001
   0.44440000  1.55560000  0.44440000       0.001
   0.55560000  1.44440000  0.55560000       0.001
   0.66670000  1.33330000  0.66670000       0.001
   0.77780000  1.22220000  0.77780000       0.001
   0.88890000  1.11110000  0.88890000       0.001
   1.00000000  1.00000000  1.00000000       0.001
 
 k-points in reciprocal lattice and weights: k-points for fermi-surface. K-mesh of 9x
   0.00000000  0.00000000  0.00000000       0.001
   0.00000000  0.00000000  0.11110000       0.001
   0.00000000  0.00000000  0.22220000       0.001
   0.00000000  0.00000000  0.33330000       0.001
   0.00000000  0.00000000  0.44440000       0.001
   0.00000000  0.00000000  0.55560000       0.001
   0.00000000  0.00000000  0.66670000       0.001
   0.00000000  0.00000000  0.77780000       0.001
   0.00000000  0.00000000  0.88890000       0.001
   0.00000000  0.00000000  1.00000000       0.001
   0.00000000  0.11110000  0.00000000       0.001
   0.00000000  0.11110000  0.11110000       0.001
   0.00000000  0.11110000  0.22220000       0.001
   0.00000000  0.11110000  0.33330000       0.001
   0.00000000  0.11110000  0.44440000       0.001
   0.00000000  0.11110000  0.55560000       0.001
   0.00000000  0.11110000  0.66670000       0.001
   0.00000000  0.11110000  0.77780000       0.001
   0.00000000  0.11110000  0.88890000       0.001
   0.00000000  0.11110000  1.00000000       0.001
   0.00000000  0.22220000  0.00000000       0.001
   0.00000000  0.22220000  0.11110000       0.001
   0.00000000  0.22220000  0.22220000       0.001
   0.00000000  0.22220000  0.33330000       0.001
   0.00000000  0.22220000  0.44440000       0.001
   0.00000000  0.22220000  0.55560000       0.001
   0.00000000  0.22220000  0.66670000       0.001
   0.00000000  0.22220000  0.77780000       0.001
   0.00000000  0.22220000  0.88890000       0.001
   0.00000000  0.22220000  1.00000000       0.001
   0.00000000  0.33330000  0.00000000       0.001
   0.00000000  0.33330000  0.11110000       0.001
   0.00000000  0.33330000  0.22220000       0.001
   0.00000000  0.33330000  0.33330000       0.001
   0.00000000  0.33330000  0.44440000       0.001
   0.00000000  0.33330000  0.55560000       0.001
   0.00000000  0.33330000  0.66670000       0.001
   0.00000000  0.33330000  0.77780000       0.001
   0.00000000  0.33330000  0.88890000       0.001
   0.00000000  0.33330000  1.00000000       0.001
   0.00000000  0.44440000  0.00000000       0.001
   0.00000000  0.44440000  0.11110000       0.001
   0.00000000  0.44440000  0.22220000       0.001
   0.00000000  0.44440000  0.33330000       0.001
   0.00000000  0.44440000  0.44440000       0.001
   0.00000000  0.44440000  0.55560000       0.001
   0.00000000  0.44440000  0.66670000       0.001
   0.00000000  0.44440000  0.77780000       0.001
   0.00000000  0.44440000  0.88890000       0.001
   0.00000000  0.44440000  1.00000000       0.001
   0.00000000  0.55560000  0.00000000       0.001
   0.00000000  0.55560000  0.11110000       0.001
   0.00000000  0.55560000  0.22220000       0.001
   0.00000000  0.55560000  0.33330000       0.001
   0.00000000  0.55560000  0.44440000       0.001
   0.00000000  0.55560000  0.55560000       0.001
   0.00000000  0.55560000  0.66670000       0.001
   0.00000000  0.55560000  0.77780000       0.001
   0.00000000  0.55560000  0.88890000       0.001
   0.00000000  0.55560000  1.00000000       0.001
   0.00000000  0.66670000  0.00000000       0.001
   0.00000000  0.66670000  0.11110000       0.001
   0.00000000  0.66670000  0.22220000       0.001
   0.00000000  0.66670000  0.33330000       0.001
   0.00000000  0.66670000  0.44440000       0.001
   0.00000000  0.66670000  0.55560000       0.001
   0.00000000  0.66670000  0.66670000       0.001
   0.00000000  0.66670000  0.77780000       0.001
   0.00000000  0.66670000  0.88890000       0.001
   0.00000000  0.66670000  1.00000000       0.001
   0.00000000  0.77780000  0.00000000       0.001
   0.00000000  0.77780000  0.11110000       0.001
   0.00000000  0.77780000  0.22220000       0.001
   0.00000000  0.77780000  0.33330000       0.001
   0.00000000  0.77780000  0.44440000       0.001
   0.00000000  0.77780000  0.55560000       0.001
   0.00000000  0.77780000  0.66670000       0.001
   0.00000000  0.77780000  0.77780000       0.001
   0.00000000  0.77780000  0.88890000       0.001
   0.00000000  0.77780000  1.00000000       0.001
   0.00000000  0.88890000  0.00000000       0.001
   0.00000000  0.88890000  0.11110000       0.001
   0.00000000  0.88890000  0.22220000       0.001
   0.00000000  0.88890000  0.33330000       0.001
   0.00000000  0.88890000  0.44440000       0.001
   0.00000000  0.88890000  0.55560000       0.001
   0.00000000  0.88890000  0.66670000       0.001
   0.00000000  0.88890000  0.77780000       0.001
   0.00000000  0.88890000  0.88890000       0.001
   0.00000000  0.88890000  1.00000000       0.001
   0.00000000  1.00000000  0.00000000       0.001
   0.00000000  1.00000000  0.11110000       0.001
   0.00000000  1.00000000  0.22220000       0.001
   0.00000000  1.00000000  0.33330000       0.001
   0.00000000  1.00000000  0.44440000       0.001
   0.00000000  1.00000000  0.55560000       0.001
   0.00000000  1.00000000  0.66670000       0.001
   0.00000000  1.00000000  0.77780000       0.001
   0.00000000  1.00000000  0.88890000       0.001
   0.00000000  1.00000000  1.00000000       0.001
   0.11110000  0.00000000  0.00000000       0.001
   0.11110000  0.00000000  0.11110000       0.001
   0.11110000  0.00000000  0.22220000       0.001
   0.11110000  0.00000000  0.33330000       0.001
   0.11110000  0.00000000  0.44440000       0.001
   0.11110000  0.00000000  0.55560000       0.001
   0.11110000  0.00000000  0.66670000       0.001
   0.11110000  0.00000000  0.77780000       0.001
   0.11110000  0.00000000  0.88890000       0.001
   0.11110000  0.00000000  1.00000000       0.001
   0.11110000  0.11110000  0.00000000       0.001
   0.11110000  0.11110000  0.11110000       0.001
   0.11110000  0.11110000  0.22220000       0.001
   0.11110000  0.11110000  0.33330000       0.001
   0.11110000  0.11110000  0.44440000       0.001
   0.11110000  0.11110000  0.55560000       0.001
   0.11110000  0.11110000  0.66670000       0.001
   0.11110000  0.11110000  0.77780000       0.001
   0.11110000  0.11110000  0.88890000       0.001
   0.11110000  0.11110000  1.00000000       0.001
   0.11110000  0.22220000  0.00000000       0.001
   0.11110000  0.22220000  0.11110000       0.001
   0.11110000  0.22220000  0.22220000       0.001
   0.11110000  0.22220000  0.33330000       0.001
   0.11110000  0.22220000  0.44440000       0.001
   0.11110000  0.22220000  0.55560000       0.001
   0.11110000  0.22220000  0.66670000       0.001
   0.11110000  0.22220000  0.77780000       0.001
   0.11110000  0.22220000  0.88890000       0.001
   0.11110000  0.22220000  1.00000000       0.001
   0.11110000  0.33330000  0.00000000       0.001
   0.11110000  0.33330000  0.11110000       0.001
   0.11110000  0.33330000  0.22220000       0.001
   0.11110000  0.33330000  0.33330000       0.001
   0.11110000  0.33330000  0.44440000       0.001
   0.11110000  0.33330000  0.55560000       0.001
   0.11110000  0.33330000  0.66670000       0.001
   0.11110000  0.33330000  0.77780000       0.001
   0.11110000  0.33330000  0.88890000       0.001
   0.11110000  0.33330000  1.00000000       0.001
   0.11110000  0.44440000  0.00000000       0.001
   0.11110000  0.44440000  0.11110000       0.001
   0.11110000  0.44440000  0.22220000       0.001
   0.11110000  0.44440000  0.33330000       0.001
   0.11110000  0.44440000  0.44440000       0.001
   0.11110000  0.44440000  0.55560000       0.001
   0.11110000  0.44440000  0.66670000       0.001
   0.11110000  0.44440000  0.77780000       0.001
   0.11110000  0.44440000  0.88890000       0.001
   0.11110000  0.44440000  1.00000000       0.001
   0.11110000  0.55560000  0.00000000       0.001
   0.11110000  0.55560000  0.11110000       0.001
   0.11110000  0.55560000  0.22220000       0.001
   0.11110000  0.55560000  0.33330000       0.001
   0.11110000  0.55560000  0.44440000       0.001
   0.11110000  0.55560000  0.55560000       0.001
   0.11110000  0.55560000  0.66670000       0.001
   0.11110000  0.55560000  0.77780000       0.001
   0.11110000  0.55560000  0.88890000       0.001
   0.11110000  0.55560000  1.00000000       0.001
   0.11110000  0.66670000  0.00000000       0.001
   0.11110000  0.66670000  0.11110000       0.001
   0.11110000  0.66670000  0.22220000       0.001
   0.11110000  0.66670000  0.33330000       0.001
   0.11110000  0.66670000  0.44440000       0.001
   0.11110000  0.66670000  0.55560000       0.001
   0.11110000  0.66670000  0.66670000       0.001
   0.11110000  0.66670000  0.77780000       0.001
   0.11110000  0.66670000  0.88890000       0.001
   0.11110000  0.66670000  1.00000000       0.001
   0.11110000  0.77780000  0.00000000       0.001
   0.11110000  0.77780000  0.11110000       0.001
   0.11110000  0.77780000  0.22220000       0.001
   0.11110000  0.77780000  0.33330000       0.001
   0.11110000  0.77780000  0.44440000       0.001
   0.11110000  0.77780000  0.55560000       0.001
   0.11110000  0.77780000  0.66670000       0.001
   0.11110000  0.77780000  0.77780000       0.001
   0.11110000  0.77780000  0.88890000       0.001
   0.11110000  0.77780000  1.00000000       0.001
   0.11110000  0.88890000  0.00000000       0.001
   0.11110000  0.88890000  0.11110000       0.001
   0.11110000  0.88890000  0.22220000       0.001
   0.11110000  0.88890000  0.33330000       0.001
   0.11110000  0.88890000  0.44440000       0.001
   0.11110000  0.88890000  0.55560000       0.001
   0.11110000  0.88890000  0.66670000       0.001
   0.11110000  0.88890000  0.77780000       0.001
   0.11110000  0.88890000  0.88890000       0.001
   0.11110000  0.88890000  1.00000000       0.001
   0.11110000  1.00000000  0.00000000       0.001
   0.11110000  1.00000000  0.11110000       0.001
   0.11110000  1.00000000  0.22220000       0.001
   0.11110000  1.00000000  0.33330000       0.001
   0.11110000  1.00000000  0.44440000       0.001
   0.11110000  1.00000000  0.55560000       0.001
   0.11110000  1.00000000  0.66670000       0.001
   0.11110000  1.00000000  0.77780000       0.001
   0.11110000  1.00000000  0.88890000       0.001
   0.11110000  1.00000000  1.00000000       0.001
   0.22220000  0.00000000  0.00000000       0.001
   0.22220000  0.00000000  0.11110000       0.001
   0.22220000  0.00000000  0.22220000       0.001
   0.22220000  0.00000000  0.33330000       0.001
   0.22220000  0.00000000  0.44440000       0.001
   0.22220000  0.00000000  0.55560000       0.001
   0.22220000  0.00000000  0.66670000       0.001
   0.22220000  0.00000000  0.77780000       0.001
   0.22220000  0.00000000  0.88890000       0.001
   0.22220000  0.00000000  1.00000000       0.001
   0.22220000  0.11110000  0.00000000       0.001
   0.22220000  0.11110000  0.11110000       0.001
   0.22220000  0.11110000  0.22220000       0.001
   0.22220000  0.11110000  0.33330000       0.001
   0.22220000  0.11110000  0.44440000       0.001
   0.22220000  0.11110000  0.55560000       0.001
   0.22220000  0.11110000  0.66670000       0.001
   0.22220000  0.11110000  0.77780000       0.001
   0.22220000  0.11110000  0.88890000       0.001
   0.22220000  0.11110000  1.00000000       0.001
   0.22220000  0.22220000  0.00000000       0.001
   0.22220000  0.22220000  0.11110000       0.001
   0.22220000  0.22220000  0.22220000       0.001
   0.22220000  0.22220000  0.33330000       0.001
   0.22220000  0.22220000  0.44440000       0.001
   0.22220000  0.22220000  0.55560000       0.001
   0.22220000  0.22220000  0.66670000       0.001
   0.22220000  0.22220000  0.77780000       0.001
   0.22220000  0.22220000  0.88890000       0.001
   0.22220000  0.22220000  1.00000000       0.001
   0.22220000  0.33330000  0.00000000       0.001
   0.22220000  0.33330000  0.11110000       0.001
   0.22220000  0.33330000  0.22220000       0.001
   0.22220000  0.33330000  0.33330000       0.001
   0.22220000  0.33330000  0.44440000       0.001
   0.22220000  0.33330000  0.55560000       0.001
   0.22220000  0.33330000  0.66670000       0.001
   0.22220000  0.33330000  0.77780000       0.001
   0.22220000  0.33330000  0.88890000       0.001
   0.22220000  0.33330000  1.00000000       0.001
   0.22220000  0.44440000  0.00000000       0.001
   0.22220000  0.44440000  0.11110000       0.001
   0.22220000  0.44440000  0.22220000       0.001
   0.22220000  0.44440000  0.33330000       0.001
   0.22220000  0.44440000  0.44440000       0.001
   0.22220000  0.44440000  0.55560000       0.001
   0.22220000  0.44440000  0.66670000       0.001
   0.22220000  0.44440000  0.77780000       0.001
   0.22220000  0.44440000  0.88890000       0.001
   0.22220000  0.44440000  1.00000000       0.001
   0.22220000  0.55560000  0.00000000       0.001
   0.22220000  0.55560000  0.11110000       0.001
   0.22220000  0.55560000  0.22220000       0.001
   0.22220000  0.55560000  0.33330000       0.001
   0.22220000  0.55560000  0.44440000       0.001
   0.22220000  0.55560000  0.55560000       0.001
   0.22220000  0.55560000  0.66670000       0.001
   0.22220000  0.55560000  0.77780000       0.001
   0.22220000  0.55560000  0.88890000       0.001
   0.22220000  0.55560000  1.00000000       0.001
   0.22220000  0.66670000  0.00000000       0.001
   0.22220000  0.66670000  0.11110000       0.001
   0.22220000  0.66670000  0.22220000       0.001
   0.22220000  0.66670000  0.33330000       0.001
   0.22220000  0.66670000  0.44440000       0.001
   0.22220000  0.66670000  0.55560000       0.001
   0.22220000  0.66670000  0.66670000       0.001
   0.22220000  0.66670000  0.77780000       0.001
   0.22220000  0.66670000  0.88890000       0.001
   0.22220000  0.66670000  1.00000000       0.001
   0.22220000  0.77780000  0.00000000       0.001
   0.22220000  0.77780000  0.11110000       0.001
   0.22220000  0.77780000  0.22220000       0.001
   0.22220000  0.77780000  0.33330000       0.001
   0.22220000  0.77780000  0.44440000       0.001
   0.22220000  0.77780000  0.55560000       0.001
   0.22220000  0.77780000  0.66670000       0.001
   0.22220000  0.77780000  0.77780000       0.001
   0.22220000  0.77780000  0.88890000       0.001
   0.22220000  0.77780000  1.00000000       0.001
   0.22220000  0.88890000  0.00000000       0.001
   0.22220000  0.88890000  0.11110000       0.001
   0.22220000  0.88890000  0.22220000       0.001
   0.22220000  0.88890000  0.33330000       0.001
   0.22220000  0.88890000  0.44440000       0.001
   0.22220000  0.88890000  0.55560000       0.001
   0.22220000  0.88890000  0.66670000       0.001
   0.22220000  0.88890000  0.77780000       0.001
   0.22220000  0.88890000  0.88890000       0.001
   0.22220000  0.88890000  1.00000000       0.001
   0.22220000  1.00000000  0.00000000       0.001
   0.22220000  1.00000000  0.11110000       0.001
   0.22220000  1.00000000  0.22220000       0.001
   0.22220000  1.00000000  0.33330000       0.001
   0.22220000  1.00000000  0.44440000       0.001
   0.22220000  1.00000000  0.55560000       0.001
   0.22220000  1.00000000  0.66670000       0.001
   0.22220000  1.00000000  0.77780000       0.001
   0.22220000  1.00000000  0.88890000       0.001
   0.22220000  1.00000000  1.00000000       0.001
   0.33330000  0.00000000  0.00000000       0.001
   0.33330000  0.00000000  0.11110000       0.001
   0.33330000  0.00000000  0.22220000       0.001
   0.33330000  0.00000000  0.33330000       0.001
   0.33330000  0.00000000  0.44440000       0.001
   0.33330000  0.00000000  0.55560000       0.001
   0.33330000  0.00000000  0.66670000       0.001
   0.33330000  0.00000000  0.77780000       0.001
   0.33330000  0.00000000  0.88890000       0.001
   0.33330000  0.00000000  1.00000000       0.001
   0.33330000  0.11110000  0.00000000       0.001
   0.33330000  0.11110000  0.11110000       0.001
   0.33330000  0.11110000  0.22220000       0.001
   0.33330000  0.11110000  0.33330000       0.001
   0.33330000  0.11110000  0.44440000       0.001
   0.33330000  0.11110000  0.55560000       0.001
   0.33330000  0.11110000  0.66670000       0.001
   0.33330000  0.11110000  0.77780000       0.001
   0.33330000  0.11110000  0.88890000       0.001
   0.33330000  0.11110000  1.00000000       0.001
   0.33330000  0.22220000  0.00000000       0.001
   0.33330000  0.22220000  0.11110000       0.001
   0.33330000  0.22220000  0.22220000       0.001
   0.33330000  0.22220000  0.33330000       0.001
   0.33330000  0.22220000  0.44440000       0.001
   0.33330000  0.22220000  0.55560000       0.001
   0.33330000  0.22220000  0.66670000       0.001
[...]
     12      26.3986      0.00000

 k-point 979 :       1.0000    0.7778    0.8889
  band No.  band energies     occupation 
      1     -63.0881      2.00000
      2     -63.0641      2.00000
      3     -63.0327      2.00000
      4      -0.8428      2.00000
      5       3.3723      2.00000
      6       3.9514      2.00000
      7       4.0080      2.00000
      8       4.3901      2.00000
      9       4.7231      2.00000
     10      23.0459      0.00000
     11      27.2254      0.00000
     12      28.2283      0.00000

 k-point 980 :       1.0000    0.7778    1.0000
  band No.  band energies     occupation 
      1     -63.1180      2.00000
      2     -63.1173      2.00000
      3     -63.1054      2.00000
      4      -0.7185      2.00000
      5       3.4874      2.00000
      6       3.8696      2.00000
      7       3.8696      2.00000
      8       4.5702      2.00000
      9       4.5702      2.00000
     10      20.8358      0.00000
     11      29.8248      0.00000
     12      30.1944      0.00000

 k-point 981 :       1.0000    0.8889    0.0000
  band No.  band energies     occupation 
      1     -63.1000      2.00000
      2     -63.0463      2.00000
      3     -63.0457      2.00000
      4      -1.9820      2.00000
      5       3.6278      2.00000
      6       3.8049      2.00000
      7       3.8049      2.00000
      8       4.5336      2.00000
      9       4.5336      2.00000
     10      26.6214      0.00000
     11      30.4614      0.00000
     12      31.4020      0.00000

 k-point 982 :       1.0000    0.8889    0.1111
  band No.  band energies     occupation 
      1     -63.0805      2.00000
      2     -63.0743      2.00000
      3     -63.0069      2.00000
      4      -1.2593      2.00000
      5       3.4888      2.00000
      6       3.8969      2.00000
      7       3.9297      2.00000
      8       4.3714      2.00000
      9       4.7096      2.00000
     10      24.6915      0.00000
     11      25.4536      0.00000
     12      32.2986      0.00000

 k-point 983 :       1.0000    0.8889    0.2222
  band No.  band energies     occupation 
      1     -63.0893      2.00000
      2     -63.0593      2.00000
      3     -63.0098      2.00000
      4       0.1798      2.00000
      5       3.3654      2.00000
      6       3.8575      2.00000
      7       4.0080      2.00000
      8       4.4395      2.00000
      9       5.0320      2.00000
     10      19.3269      0.00000
     11      24.1423      0.00000
     12      31.2563      0.00000

 k-point 984 :       1.0000    0.8889    0.3333
  band No.  band energies     occupation 
      1     -63.1097      2.00000
      2     -63.0605      2.00000
      3     -63.0405      2.00000
      4       1.5873      2.00000
      5       3.6721      2.00000
      6       3.7496      2.00000
      7       3.8822      2.00000
      8       4.8211      2.00000
      9       5.6971      1.99999
     10      14.3285      0.00000
     11      23.9062      0.00000
     12      29.3413      0.00000

 k-point 985 :       1.0000    0.8889    0.4444
  band No.  band energies     occupation 
      1     -63.0896      2.00000
      2     -63.0637      2.00000
      3     -62.9780      2.00000
      4       1.9921      2.00000
      5       3.5560      2.00000
      6       3.8180      2.00000
      7       4.3373      2.00000
      8       5.1159      2.00000
      9       7.1023      0.00000
     10      10.9313      0.00000
     11      24.5037      0.00000
     12      27.4466      0.00000

 k-point 986 :       1.0000    0.8889    0.5556
  band No.  band energies     occupation 
      1     -63.1070      2.00000
      2     -63.0779      2.00000
      3     -63.0486      2.00000
      4       1.8023      2.00000
      5       3.5794      2.00000
      6       3.8688      2.00000
      7       3.9579      2.00000
      8       5.1251      2.00000
      9       6.0197      1.97375
     10      12.8906      0.00000
     11      25.8693      0.00000
     12      26.3826      0.00000

 k-point 987 :       1.0000    0.8889    0.6667
  band No.  band energies     occupation 
      1     -63.0971      2.00000
      2     -63.0664      2.00000
      3     -63.0645      2.00000
      4       0.7163      2.00000
      5       3.3284      2.00000
      6       3.7852      2.00000
      7       3.9896      2.00000
      8       4.8623      2.00000
      9       4.9387      2.00000
     10      17.5557      0.00000
     11      26.3468      0.00000
     12      27.3434      0.00000

 k-point 988 :       1.0000    0.8889    0.7778
  band No.  band energies     occupation 
      1     -63.0881      2.00000
      2     -63.0641      2.00000
      3     -63.0327      2.00000
      4      -0.8428      2.00000
      5       3.3723      2.00000
      6       3.9514      2.00000
      7       4.0080      2.00000
      8       4.3901      2.00000
      9       4.7231      2.00000
     10      23.0459      0.00000
     11      27.2254      0.00000
     12      28.2283      0.00000

 k-point 989 :       1.0000    0.8889    0.8889
  band No.  band energies     occupation 
      1     -63.1160      2.00000
      2     -63.0254      2.00000
      3     -63.0249      2.00000
      4      -1.8341      2.00000
      5       3.5454      2.00000
      6       3.8517      2.00000
      7       3.8518      2.00000
      8       4.4091      2.00000
      9       4.6863      2.00000
     10      28.2600      0.00000
     11      28.9296      0.00000
     12      28.9297      0.00000

 k-point 990 :       1.0000    0.8889    1.0000
  band No.  band energies     occupation 
      1     -63.1000      2.00000
      2     -63.0463      2.00000
      3     -63.0457      2.00000
      4      -1.9820      2.00000
      5       3.6278      2.00000
      6       3.8049      2.00000
      7       3.8049      2.00000
      8       4.5336      2.00000
      9       4.5336      2.00000
     10      26.6214      0.00000
     11      30.4614      0.00000
     12      31.4020      0.00000

 k-point 991 :       1.0000    1.0000    0.0000
  band No.  band energies     occupation 
      1     -62.9865      2.00000
      2     -62.9858      2.00000
      3     -62.9858      2.00000
      4      -2.4290      2.00000
      5       3.7345      2.00000
      6       3.7345      2.00000
      7       3.7345      2.00000
      8       4.6214      2.00000
      9       4.6214      2.00000
     10      29.7892      0.00000
     11      32.4824      0.00000
     12      32.4824      0.00000

 k-point 992 :       1.0000    1.0000    0.1111
  band No.  band energies     occupation 
      1     -63.1000      2.00000
      2     -63.0463      2.00000
      3     -63.0457      2.00000
      4      -1.9820      2.00000
      5       3.6278      2.00000
      6       3.8049      2.00000
      7       3.8049      2.00000
      8       4.5336      2.00000
      9       4.5336      2.00000
     10      26.6214      0.00000
     11      30.4614      0.00000
     12      31.4020      0.00000

 k-point 993 :       1.0000    1.0000    0.2222
  band No.  band energies     occupation 
      1     -63.1180      2.00000
      2     -63.1173      2.00000
      3     -63.1054      2.00000
      4      -0.7185      2.00000
      5       3.4874      2.00000
      6       3.8696      2.00000
      7       3.8696      2.00000
      8       4.5702      2.00000
      9       4.5702      2.00000
     10      20.8358      0.00000
     11      29.8249      0.00000
     12      30.1944      0.00000

 k-point 994 :       1.0000    1.0000    0.3333
  band No.  band energies     occupation 
      1     -63.0941      2.00000
      2     -63.0919      2.00000
      3     -63.0913      2.00000
      4       0.9048      2.00000
      5       3.7748      2.00000
      6       3.7938      2.00000
      7       3.7938      2.00000
      8       4.8689      2.00000
      9       4.8690      2.00000
     10      15.5780      0.00000
     11      28.9262      0.00000
     12      29.5256      0.00000

 k-point 995 :       1.0000    1.0000    0.4444
  band No.  band energies     occupation 
      1     -63.1149      2.00000
      2     -63.1108      2.00000
      3     -63.1102      2.00000
      4       1.6765      2.00000
      5       3.6924      2.00000
      6       3.6925      2.00000
      7       5.0922      2.00000
      8       5.0923      2.00000
      9       5.3800      2.00000
     10      11.4811      0.00000
     11      28.2934      0.00000
     12      29.2885      0.00000

 k-point 996 :       1.0000    1.0000    0.5556
  band No.  band energies     occupation 
      1     -63.1149      2.00000
      2     -63.1108      2.00000
      3     -63.1102      2.00000
      4       1.6765      2.00000
      5       3.6924      2.00000
      6       3.6925      2.00000
      7       5.0922      2.00000
      8       5.0923      2.00000
      9       5.3800      2.00000
     10      11.4811      0.00000
     11      28.2934      0.00000
     12      29.2885      0.00000

 k-point 997 :       1.0000    1.0000    0.6667
  band No.  band energies     occupation 
      1     -63.0941      2.00000
      2     -63.0919      2.00000
      3     -63.0913      2.00000
      4       0.9048      2.00000
      5       3.7748      2.00000
      6       3.7938      2.00000
      7       3.7938      2.00000
      8       4.8689      2.00000
      9       4.8690      2.00000
     10      15.5780      0.00000
     11      28.9262      0.00000
     12      29.5256      0.00000

 k-point 998 :       1.0000    1.0000    0.7778
  band No.  band energies     occupation 
      1     -63.1180      2.00000
      2     -63.1173      2.00000
      3     -63.1054      2.00000
      4      -0.7185      2.00000
      5       3.4874      2.00000
      6       3.8696      2.00000
      7       3.8696      2.00000
      8       4.5702      2.00000
      9       4.5702      2.00000
     10      20.8358      0.00000
     11      29.8248      0.00000
     12      30.1944      0.00000

 k-point 999 :       1.0000    1.0000    0.8889
  band No.  band energies     occupation 
      1     -63.1000      2.00000
      2     -63.0463      2.00000
      3     -63.0457      2.00000
      4      -1.9820      2.00000
      5       3.6278      2.00000
      6       3.8049      2.00000
      7       3.8049      2.00000
      8       4.5336      2.00000
      9       4.5336      2.00000
     10      26.6214      0.00000
     11      30.4614      0.00000
     12      31.4020      0.00000

 k-point *** :       1.0000    1.0000    1.0000
  band No.  band energies     occupation 
      1     -62.9865      2.00000
      2     -62.9858      2.00000
      3     -62.9858      2.00000
      4      -2.4290      2.00000
      5       3.7345      2.00000
      6       3.7345      2.00000
      7       3.7345      2.00000
      8       4.6214      2.00000
      9       4.6214      2.00000
     10      29.7892      0.00000
     11      32.4823      0.00000
     12      32.4824      0.00000


--------------------------------------------------------------------------------------------------------


 soft charge-density along one line, spin component           1
         0         1         2         3         4         5         6         7         8         9
 total charge-density along one line
 
 pseudopotential strength for first ion, spin component:           1
-67.623   0.000   0.000  31.844   0.000   0.000   0.000   0.000
  0.000 -67.623   0.000   0.000  31.844   0.000   0.000   0.000
  0.000   0.000 -67.623   0.000   0.000  31.844   0.000   0.000
 31.844   0.000   0.000  -9.105   0.000   0.000   0.000   0.000
  0.000  31.844   0.000   0.000  -9.105   0.000   0.000   0.000
  0.000   0.000  31.844   0.000   0.000  -9.105   0.000   0.000
  0.000   0.000   0.000   0.000   0.000   0.000  -6.813   0.000
  0.000   0.000   0.000   0.000   0.000   0.000   0.000  -6.813
  0.000   0.000   0.000   0.000   0.000   0.000   0.000   0.000
  0.000   0.000   0.000   0.000   0.000   0.000   0.000   0.000
  0.000   0.000   0.000   0.000   0.000   0.000   0.000   0.000
  0.000   0.000   0.000   0.000   0.000   0.000  -0.650   0.000
  0.000   0.000   0.000   0.000   0.000   0.000   0.000  -0.650
  0.000   0.000   0.000   0.000   0.000   0.000   0.000   0.000
  0.000   0.000   0.000   0.000   0.000   0.000   0.000   0.000
  0.000   0.000   0.000   0.000   0.000   0.000   0.000   0.000
  0.000   0.000   0.000   0.000   0.000   0.000   0.000   0.000
  0.000   0.000   0.000   0.000   0.000   0.000   0.000   0.000
 total augmentation occupancy for first ion, spin component:           1
  2.042   0.000   0.000   0.065   0.000   0.000   0.000   0.000   0.000   0.000   0.000   0.000   0.000   0.000   0.000   0.000
  0.000   2.042   0.000   0.000   0.065   0.000   0.000   0.000   0.000   0.000   0.000   0.000   0.000   0.000   0.000   0.000
  0.000   0.000   2.042   0.000   0.000   0.065   0.000   0.000   0.000   0.000   0.000   0.000   0.000   0.000   0.000   0.000
  0.065   0.000   0.000   0.121   0.000   0.000   0.000   0.000   0.000   0.000   0.000   0.000   0.000   0.000   0.000   0.000
  0.000   0.065   0.000   0.000   0.121   0.000   0.000   0.000   0.000   0.000   0.000   0.000   0.000   0.000   0.000   0.000
  0.000   0.000   0.065   0.000   0.000   0.121   0.000   0.000   0.000   0.000   0.000   0.000   0.000   0.000   0.000   0.000
  0.000   0.000   0.000   0.000   0.000   0.000   1.940   0.000   0.000   0.000   0.000   0.018   0.000   0.000   0.000   0.000
  0.000   0.000   0.000   0.000   0.000   0.000   0.000   1.940   0.000   0.000   0.000   0.000   0.018   0.000   0.000   0.000
  0.000   0.000   0.000   0.000   0.000   0.000   0.000   0.000   1.962   0.000   0.000   0.000   0.000  -0.039   0.000   0.000
  0.000   0.000   0.000   0.000   0.000   0.000   0.000   0.000   0.000   1.940   0.000   0.000   0.000   0.000   0.018   0.000
  0.000   0.000   0.000   0.000   0.000   0.000   0.000   0.000   0.000   0.000   1.962   0.000   0.000   0.000   0.000  -0.039
  0.000   0.000   0.000   0.000   0.000   0.000   0.018   0.000   0.000   0.000   0.000   0.067   0.000   0.000   0.000   0.000
  0.000   0.000   0.000   0.000   0.000   0.000   0.000   0.018   0.000   0.000   0.000   0.000   0.067   0.000   0.000   0.000
  0.000   0.000   0.000   0.000   0.000   0.000   0.000   0.000  -0.039   0.000   0.000   0.000   0.000   0.064   0.000   0.000
  0.000   0.000   0.000   0.000   0.000   0.000   0.000   0.000   0.000   0.018   0.000   0.000   0.000   0.000   0.067   0.000
  0.000   0.000   0.000   0.000   0.000   0.000   0.000   0.000   0.000   0.000  -0.039   0.000   0.000   0.000   0.000   0.064
  0.000   0.000   0.000   0.000   0.000   0.000   0.000   0.000   0.000   0.000   0.000   0.000   0.000   0.000   0.000   0.000
  0.000   0.000   0.000   0.000   0.000   0.000   0.000   0.000   0.000   0.000   0.000   0.000   0.000   0.000   0.000   0.000


------------------------ aborting loop because EDIFF is reached ----------------------------------------


    CHARGE:  cpu time    0.37: real time    0.37
    FORLOC:  cpu time    0.00: real time    0.00
    FORNL :  cpu time    0.59: real time    0.59
    STRESS:  cpu time    1.62: real time    1.62
    FORCOR:  cpu time    0.02: real time    0.02
    FORHAR:  cpu time    0.00: real time    0.00
    MIXING:  cpu time    0.00: real time    0.00

  FORCE on cell =-STRESS in cart. coord.  units (eV):
  Direction    XX          YY          ZZ          XY          YZ          ZX
  --------------------------------------------------------------------------------------
  Alpha Z   153.82126   153.82126   153.82126
  Ewald    -880.89015  -880.89015  -880.89015     0.00000     0.00000     0.00000
  Hartree   417.68063   417.68063   417.68063     0.00000     0.00000     0.00000
  E(xc)    -133.78242  -133.78242  -133.78242     0.00017     0.00017     0.00015
  Local     130.28665   130.28665   130.28665     0.00236     0.00236     0.00237
  n-local  -101.51380  -101.51385  -101.51381     0.07734     0.07731     0.07732
  augment   188.76326   188.76327   188.76326    -0.00140    -0.00140    -0.00146
  Kinetic   214.96892   214.96896   214.96893    -0.07800    -0.07798    -0.07799
  Fock        0.00000     0.00000     0.00000     0.00000     0.00000     0.00000
  -------------------------------------------------------------------------------------
  Total     -10.66566   -10.66566   -10.66566     0.00000     0.00000     0.00000
  in kB   -1452.90283 -1452.90283 -1452.90283     0.00000     0.00000     0.00000
  external pressure =    -1452.90 kB  Pullay stress =        0.00 kB


 VOLUME and BASIS-vectors are now :
 -----------------------------------------------------------------------------
  energy-cutoff  :      300.00
  volume of cell :       11.76
      direct lattice vectors                 reciprocal lattice vectors
     1.805000000  1.805000000  0.000000000     0.277008310  0.277008310 -0.277008310
     0.000000000  1.805000000  1.805000000    -0.277008310  0.277008310  0.277008310
     1.805000000  0.000000000  1.805000000     0.277008310 -0.277008310  0.277008310

  length of vectors
     2.552655480  2.552655480  2.552655480     0.479792467  0.479792467  0.479792467


 FORCES acting on ions
    electron-ion (+dipol)            ewald-force                    non-local-force                 convergence-correction
 -----------------------------------------------------------------------------------------------
   -.391E-12 -.112E-12 -.368E-12   -.398E-14 0.269E-14 0.335E-14   -.662E-23 -.662E-23 0.662E-23   -.330E-12 -.518E-12 -.397E-12
 -----------------------------------------------------------------------------------------------
   -.391E-12 -.112E-12 -.368E-12   -.398E-14 0.269E-14 0.335E-14   -.662E-23 -.662E-23 0.662E-23   -.330E-12 -.518E-12 -.397E-12
 
 
 POSITION                                       TOTAL-FORCE (eV/Angst)
 -----------------------------------------------------------------------------------
      0.00000      0.00000      0.00000         0.000000      0.000000      0.000000
 -----------------------------------------------------------------------------------
    total drift:                                0.000000      0.000000      0.000000


--------------------------------------------------------------------------------------------------------



  FREE ENERGIE OF THE ION-ELECTRON SYSTEM (eV)
  ---------------------------------------------------
  free  energy   TOTEN  =        -4.383785 eV

  energy  without entropy=       -4.380836  energy(sigma->0) =       -4.382311
 


--------------------------------------------------------------------------------------------------------


    POTLOK:  cpu time    0.02: real time    0.02


--------------------------------------------------------------------------------------------------------


 writing wavefunctions
     LOOP+:  cpu time   56.45: real time   56.47
    4ORBIT:  cpu time    0.00: real time    0.00

 total amount of memory used by VASP on root node    85148. kBytes
========================================================================

   base      :      30000. kBytes
   nonl-proj :      21602. kBytes
   fftplans  :        504. kBytes
   grid      :        771. kBytes
   one-center:         15. kBytes
   wavefun   :      32256. kBytes
 
  
  
 General timing and accounting informations for this job:
 ========================================================
  
                  Total CPU time used (sec):       57.465
                            User time (sec):       57.057
                          System time (sec):        0.408
                         Elapsed time (sec):       57.760
  
                   Maximum memory used (kb):      150968.
                   Average memory used (kb):           0.
  
                          Minor page faults:         9500
                          Major page faults:           34
                 Voluntary context switches:           80
