unknown system                          
   3.56700000000000     
     0.500000    0.500000    0.000000
     0.000000    0.500000    0.500000
     0.500000    0.000000    0.500000
   C 
     2
Direct
  0.000000  0.000000  0.000000
  0.250000  0.250000  0.250000
 
   24   24   24
  16.118      16.998      18.783      19.749      18.891      16.553      13.745      11.189      9.1636      7.7352    
  6.8149      6.3051      6.1425      6.3051      6.8150      7.7352      9.1635      11.189      13.745      16.553    
  18.891      19.749      18.783      16.998      16.998      18.542      20.174      20.375      18.806      16.239    
  13.602      11.360      9.6956      8.5698      7.8785      7.5500      7.5511      7.8802      8.5691      9.6933    
  11.359      13.603      16.240      18.804      20.373      20.177      18.547      17.001      18.783      20.174    
  20.867      20.054      18.026      15.608      13.395      11.661      10.443      9.6395      9.1729      9.0179    
  9.1729      9.6395      10.443      11.661      13.395      15.608      18.026      20.054      20.867      20.175    
  18.783      18.087      19.749      20.375      20.054      18.676      16.760      14.860      13.295      12.163    
  11.376      10.848      10.570      10.570      10.848      11.377      12.165      13.296      14.860      16.760    
  18.678      20.055      20.373      19.745      19.012      19.014      18.891      18.806      18.026      16.760    
  15.396      14.232      13.395      12.797      12.333      12.007      11.885      12.007      12.333      12.797    
  13.395      14.233      15.396      16.760      18.026      18.806      18.891      18.547      18.336      18.548    
  16.553      16.239      15.608      14.860      14.232      13.843      13.602      13.371      13.129      12.958    
  12.958      13.128      13.371      13.601      13.843      14.232      14.860      15.608      16.240      16.554    
  16.531      16.394      16.393      16.529      13.745      13.602      13.395      13.295      13.395      13.602    
  13.745      13.746      13.654      13.600      13.654      13.746      13.745      13.602      13.395      13.295    
  13.394      13.602      13.745      13.746      13.654      13.600      13.655      13.746      11.189      11.360    
  11.661      12.163      12.797      13.371      13.746      13.893      13.909      13.910      13.894      13.746    
  13.371      12.797      12.165      11.662      11.359      11.187      11.038      10.879      10.767      10.767    
  10.879      11.039      9.1636      9.6956      10.443      11.376      12.333      13.129      13.654      13.909    
  13.978      13.910      13.655      13.129      12.334      11.376      10.443      9.6954      9.1634      8.7864    
  8.5035      8.3086      8.2365      8.3086      8.5034      8.7864      7.7352      8.5698      9.6395      10.848    
  12.007      12.958      13.600      13.910      13.910      13.600      12.958      12.007      10.848      9.6381    
  8.5692      7.7367      7.1277      6.6866      6.3809      6.2186      6.2194      6.3821      6.6859      7.1254    
  6.8149      7.8785      9.1729      10.570      11.885      12.958      13.654      13.894      13.655      12.958    
  11.885      10.570      9.1729      7.8786      6.8150      6.0082      5.4201      5.0057      4.7494      4.6612    
  4.7495      5.0057      5.4200      6.0081      6.3051      7.5500      9.0179      10.570      12.007      13.128    
  13.746      13.746      13.129      12.007      10.570      9.0191      7.5511      6.3048      5.3276      4.6006    
  4.0815      3.7392      3.5656      3.5648      3.7380      4.0815      4.6023      5.3294      6.1425      7.5511    
  9.1729      10.848      12.333      13.371      13.745      13.371      12.334      10.848      9.1729      7.5511    
  6.1423      5.0092      4.1449      3.5139      3.0815      2.8268      2.7424      2.8268      3.0814      3.5138    
  4.1449      5.0093      6.3051      7.8802      9.6395      11.377      12.797      13.601      13.602      12.797    
  11.376      9.6381      7.8786      6.3048      5.0092      3.9993      3.2447      2.7099      2.3678      2.2012    
  2.2016      2.3687      2.7102      3.2438      3.9976      5.0080      6.8150      8.5691      10.443      12.165    
  13.395      13.843      13.395      12.165      10.443      8.5692      6.8150      5.3276      4.1449      3.2447    
  2.5896      2.1472      1.8931      1.8104      1.8930      2.1472      2.5897      3.2447      4.1448      5.3276    
  7.7352      9.6933      11.661      13.296      14.233      14.232      13.295      11.662      9.6954      7.7367    
  6.0082      4.6006      3.5139      2.7099      2.1472      1.7928      1.6224      1.6223      1.7924      2.1467    
  2.7101      3.5152      4.6023      6.0087      9.1635      11.359      13.395      14.860      15.396      14.860    
  13.394      11.359      9.1634      7.1277      5.4201      4.0815      3.0815      2.3678      1.8931      1.6224    
  1.5347      1.6224      1.8930      2.3678      3.0814      4.0814      5.4200      7.1277      11.189      13.603    
  15.608      16.760      16.760      15.608      13.602      11.187      8.7864      6.6866      5.0057      3.7392    
  2.8268      2.2012      1.8104      1.6223      1.6224      1.8107      2.2016      2.8267      3.7381      5.0041    
  6.6860      8.7873      13.745      16.240      18.026      18.678      18.026      16.240      13.745      11.038    
  8.5035      6.3809      4.7494      3.5656      2.7424      2.2016      1.8930      1.7924      1.8930      2.2016    
  2.7423      3.5656      4.7495      6.3811      8.5035      11.038      16.553      18.804      20.054      20.055    
  18.806      16.554      13.746      10.879      8.3086      6.2186      4.6612      3.5648      2.8268      2.3687    
  2.1472      2.1467      2.3678      2.8267      3.5656      4.6622      6.2193      8.3090      10.879      13.745    
  18.891      20.373      20.867      20.373      18.891      16.531      13.654      10.767      8.2365      6.2194    
  4.7495      3.7380      3.0814      2.7102      2.5897      2.7101      3.0814      3.7381      4.7495      6.2193    
  8.2364      10.767      13.654      16.531      19.749      20.177      20.175      19.745      18.547      16.394    
  13.600      10.767      8.3086      6.3821      5.0057      4.0815      3.5138      3.2438      3.2447      3.5152    
  4.0814      5.0041      6.3811      8.3090      10.767      13.599      16.393      18.549      18.783      18.547    
  18.783      19.012      18.336      16.393      13.655      10.879      8.5034      6.6859      5.4200      4.6023    
  4.1449      3.9976      4.1448      4.6023      5.4200      6.6860      8.5035      10.879      13.654      16.393    
  18.336      19.012      16.998      17.001      18.087      19.014      18.548      16.529      13.746      11.039    
  8.7864      7.1254      6.0081      5.3294      5.0093      5.0080      5.3276      6.0087      7.1277      8.7873    
  11.038      13.745      16.531      18.549      19.012      18.082      16.999      18.542      20.175      20.375    
  18.806      16.239      13.601      11.359      9.6955      8.5698      7.8785      7.5499      7.5512      7.8802    
  8.5691      9.6933      11.359      13.603      16.240      18.804      20.373      20.177      18.547      17.001    
  18.542      20.258      21.270      20.629      18.615      16.132      13.843      12.043      10.778      9.9457    
  9.4641      9.3051      9.4649      9.9456      10.777      12.042      13.843      16.131      18.613      20.627    
  21.272      20.264      18.547      17.710      20.175      21.270      21.271      19.967      17.959      15.925    
  14.233      13.004      12.151      11.579      11.279      11.279      11.579      12.151      13.005      14.232    
  15.924      17.957      19.967      21.272      21.272      20.176      19.088      19.087      20.375      20.629    
  19.967      18.627      17.122      15.815      14.860      14.169      13.632      13.255      13.115      13.256    
  13.634      14.170      14.860      15.815      17.123      18.628      19.968      20.628      20.373      19.640    
  19.256      19.642      18.806      18.615      17.959      17.122      16.395      15.925      15.608      15.299    
  14.969      14.736      14.738      14.972      15.300      15.608      15.924      16.394      17.122      17.958    
  18.615      18.806      18.538      18.198      18.198      18.538      16.239      16.132      15.925      15.815    
  15.925      16.132      16.239      16.139      15.920      15.807      15.921      16.141      16.240      16.132    
  15.924      15.814      15.924      16.132      16.241      16.141      15.921      15.807      15.920      16.139    
  13.601      13.843      14.233      14.860      15.608      16.239      16.553      16.529      16.393      16.394    
  16.531      16.554      16.240      15.608      14.860      14.232      13.843      13.601      13.371      13.128    
  12.958      12.958      13.129      13.371      11.359      12.043      13.004      14.169      15.299      16.139    
  16.529      16.568      16.531      16.569      16.530      16.140      15.299      14.170      13.005      12.043    
  11.359      10.876      10.507      10.247      10.150      10.248      10.509      10.877      9.6955      10.778    
  12.151      13.632      14.969      15.920      16.393      16.531      16.530      16.391      15.920      14.971    
  13.633      12.151      10.777      9.6952      8.9143      8.3596      7.9793      7.7774      7.7779      7.9801    
  8.3594      8.9137      8.5698      9.9457      11.579      13.255      14.736      15.807      16.394      16.569    
  16.391      15.805      14.736      13.256      11.579      9.9443      8.5691      7.5326      6.7905      6.2759    
  5.9607      5.8528      5.9609      6.2753      6.7888      7.5316      7.8785      9.4641      11.279      13.115    
  14.738      15.921      16.531      16.530      15.920      14.736      13.114      11.280      9.4652      7.8791    
  6.6380      5.7306      5.0928      4.6746      4.4623      4.4620      4.6740      5.0928      5.7312      6.6384    
  7.5499      9.3051      11.279      13.256      14.972      16.141      16.554      16.140      14.971      13.256    
  11.280      9.3068      7.5511      6.1400      5.0822      4.3245      3.8094      3.5045      3.4024      3.5041    
  3.8094      4.3256      5.0837      6.1404      7.5512      9.4649      11.579      13.634      15.300      16.240    
  16.240      15.299      13.633      11.579      9.4652      7.5511      5.9803      4.7756      3.8930      3.2749    
  2.8791      2.6846      2.6848      2.8793      3.2748      3.8926      4.7754      5.9805      7.8802      9.9456    
  12.151      14.170      15.608      16.132      15.608      14.170      12.151      9.9443      7.8791      6.1400    
  4.7756      3.7537      3.0189      2.5238      2.2376      2.1441      2.2380      2.5240      3.0183      3.7524    
  4.7745      6.1401      8.5691      10.777      13.005      14.860      15.924      15.924      14.860      13.005    
  10.777      8.5691      6.6380      5.0822      3.8930      3.0189      2.4081      2.0222      1.8358      1.8358    
  2.0222      2.4082      3.0190      3.8930      5.0821      6.6380      9.6933      12.042      14.232      15.815    
  16.394      15.814      14.232      12.043      9.6952      7.5326      5.7306      4.3245      3.2749      2.5238    
  2.0222      1.7357      1.6426      1.7354      2.0219      2.5239      3.2759      4.3260      5.7313      7.5316    
  11.359      13.843      15.924      17.123      17.122      15.924      13.843      11.359      8.9143      6.7905    
  5.0928      3.8094      2.8791      2.2376      1.8358      1.6426      1.6426      1.8358      2.2375      2.8791    
  3.8093      5.0927      6.7904      8.9144      13.603      16.131      17.957      18.628      17.958      16.132    
  13.601      10.876      8.3596      6.2759      4.6746      3.5045      2.6846      2.1441      1.8358      1.7354    
  1.8358      2.1444      2.6849      3.5039      4.6729      6.2746      8.3603      10.878      16.240      18.613    
  19.967      19.968      18.615      16.241      13.371      10.507      7.9793      5.9607      4.4623      3.4024    
  2.6848      2.2380      2.0222      2.0219      2.2375      2.6849      3.4030      4.4626      5.9604      7.9792    
  10.508      13.371      18.804      20.627      21.272      20.628      18.806      16.141      13.128      10.247    
  7.7774      5.8528      4.4620      3.5041      2.8793      2.5240      2.4082      2.5239      2.8791      3.5039    
  4.4626      5.8543      7.7790      10.247      13.127      16.138      20.373      21.272      21.272      20.373    
  18.538      15.921      12.958      10.150      7.7779      5.9609      4.6740      3.8094      3.2748      3.0183    
  3.0190      3.2759      3.8093      4.6729      5.9604      7.7790      10.151      12.958      15.919      18.537    
  20.177      20.264      20.176      19.640      18.198      15.807      12.958      10.248      7.9801      6.2753    
  5.0928      4.3256      3.8926      3.7524      3.8930      4.3260      5.0927      6.2746      7.9792      10.247    
  12.958      15.807      18.200      19.642      18.547      18.547      19.088      19.256      18.198      15.920    
  13.129      10.509      8.3594      6.7888      5.7312      5.0837      4.7754      4.7745      5.0821      5.7313    
  6.7904      8.3603      10.508      13.127      15.919      18.200      19.257      19.087      17.001      17.710    
  19.087      19.642      18.538      16.139      13.371      10.877      8.9137      7.5316      6.6384      6.1404    
  5.9805      6.1401      6.6380      7.5316      8.9144      10.878      13.371      16.138      18.537      19.642    
  19.087      17.710      18.783      20.175      20.867      20.054      18.026      15.608      13.394      11.661    
  10.443      9.6397      9.1729      9.0179      9.1730      9.6396      10.443      11.661      13.395      15.608    
  18.026      20.054      20.867      20.175      18.783      18.087      20.175      21.270      21.271      19.967    
  17.958      15.925      14.233      13.004      12.151      11.580      11.279      11.279      11.579      12.151    
  13.005      14.232      15.924      17.957      19.967      21.272      21.272      20.176      19.088      19.087    
  20.867      21.271      20.672      19.312      17.755      16.395      15.396      14.671      14.107      13.709    
  13.560      13.709      14.107      14.671      15.396      16.395      17.755      19.311      20.672      21.271    
  20.867      19.969      19.512      19.969      20.054      19.967      19.312      18.427      17.643      17.122    
  16.760      16.402      16.015      15.737      15.737      16.015      16.402      16.760      17.122      17.643    
  18.427      19.312      19.967      20.053      19.602      19.116      19.117      19.604      18.026      17.958    
  17.755      17.643      17.755      17.958      18.026      17.819      17.470      17.298      17.471      17.819    
  18.026      17.958      17.755      17.643      17.755      17.958      18.026      17.819      17.470      17.298    
  17.471      17.819      15.608      15.925      16.395      17.122      17.958      18.615      18.806      18.538    
  18.198      18.198      18.538      18.806      18.615      17.958      17.123      16.394      15.923      15.608    
  15.300      14.972      14.738      14.736      14.969      15.299      13.394      14.233      15.396      16.760    
  18.026      18.806      18.891      18.547      18.336      18.547      18.891      18.806      18.026      16.760    
  15.396      14.233      13.394      12.797      12.334      12.007      11.885      12.007      12.334      12.797    
  11.661      13.004      14.671      16.402      17.819      18.538      18.547      18.305      18.305      18.547    
  18.538      17.820      16.402      14.671      13.005      11.662      10.694      10.016      9.5568      9.3143    
  9.3155      9.5591      10.018      10.694      10.443      12.151      14.107      16.015      17.470      18.198    
  18.336      18.305      18.336      18.198      17.471      16.015      14.107      12.151      10.443      9.1439    
  8.2247      7.6005      7.2249      7.0973      7.2248      7.6005      8.2247      9.1438      9.6397      11.580    
  13.709      15.737      17.298      18.198      18.547      18.547      18.198      17.298      15.737      13.709    
  11.579      9.6391      8.0914      6.9657      6.1870      5.6853      5.4337      5.4330      5.6837      6.1859    
  6.9656      8.0920      9.1729      11.279      13.560      15.737      17.471      18.538      18.891      18.538    
  17.471      15.737      13.560      11.279      9.1730      7.4396      6.1445      5.2302      4.6169      4.2568    
  4.1369      4.2568      4.6170      5.2302      6.1445      7.4395      9.0179      11.279      13.709      16.015    
  17.819      18.806      18.806      17.820      16.015      13.709      11.279      9.0185      7.1259      5.6798    
  4.6376      3.9188      3.4612      3.2358      3.2360      3.4618      3.9196      4.6382      5.6797      7.1253    
  9.1730      11.579      14.107      16.402      18.026      18.615      18.026      16.402      14.107      11.579    
  9.1730      7.1259      5.5290      4.3526      3.5212      2.9658      2.6442      2.5383      2.6441      2.9657    
  3.5212      4.3527      5.5290      7.1259      9.6396      12.151      14.671      16.760      17.958      17.958    
  16.760      14.671      12.151      9.6391      7.4396      5.6798      4.3526      3.3916      2.7262      2.3062    
  2.1024      2.1025      2.3061      2.7259      3.3909      4.3521      5.6799      7.4402      10.443      13.005    
  15.396      17.122      17.755      17.123      15.396      13.005      10.443      8.0914      6.1445      4.6376    
  3.5212      2.7262      2.1958      1.8920      1.7932      1.8921      2.1959      2.7263      3.5212      4.6375    
  6.1445      8.0914      11.661      14.232      16.395      17.643      17.643      16.394      14.233      11.662    
  9.1439      6.9657      5.2302      3.9188      2.9658      2.3062      1.8920      1.6928      1.6928      1.8919    
  2.3061      2.9662      3.9196      5.2309      6.9655      9.1427      13.395      15.924      17.755      18.427    
  17.755      15.923      13.394      10.694      8.2247      6.1870      4.6169      3.4612      2.6442      2.1024    
  1.7932      1.6928      1.7932      2.1024      2.6441      3.4611      4.6169      6.1870      8.2247      10.694    
  15.608      17.957      19.311      19.312      17.958      15.608      12.797      10.016      7.6005      5.6853    
  4.2568      3.2358      2.5383      2.1025      1.8921      1.8919      2.1024      2.5387      3.2361      4.2559    
  5.6836      7.5999      10.018      12.799      18.026      19.967      20.672      19.967      18.026      15.300    
  12.334      9.5568      7.2249      5.4337      4.1369      3.2360      2.6441      2.3061      2.1959      2.3061    
  2.6441      3.2361      4.1370      5.4338      7.2248      9.5567      12.334      15.300      20.054      21.272    
  21.271      20.053      17.819      14.972      12.007      9.3143      7.0973      5.4330      4.2568      3.4618    
  2.9657      2.7259      2.7263      2.9662      3.4611      4.2559      5.4338      7.0996      9.3155      12.005    
  14.969      17.819      20.867      21.272      20.867      19.602      17.470      14.738      11.885      9.3155    
  7.2248      5.6837      4.6170      3.9196      3.5212      3.3909      3.5212      3.9196      4.6169      5.6836    
  7.2248      9.3155      11.885      14.738      17.471      19.602      20.175      20.176      19.969      19.116    
  17.298      14.736      12.007      9.5591      7.6005      6.1859      5.2302      4.6382      4.3527      4.3521    
  4.6375      5.2309      6.1870      7.5999      9.5567      12.005      14.738      17.301      19.117      19.968    
  18.783      19.088      19.512      19.117      17.471      14.969      12.334      10.018      8.2247      6.9656    
  6.1445      5.6797      5.5290      5.6799      6.1445      6.9655      8.2247      10.018      12.334      14.969    
  17.471      19.117      19.512      19.088      18.087      19.087      19.969      19.604      17.819      15.299    
  12.797      10.694      9.1438      8.0920      7.4395      7.1253      7.1259      7.4402      8.0914      9.1427    
  10.694      12.799      15.300      17.819      19.602      19.968      19.088      18.087      19.750      20.375    
  20.054      18.676      16.760      14.860      13.295      12.163      11.376      10.848      10.570      10.570    
  10.848      11.377      12.165      13.296      14.860      16.760      18.678      20.055      20.373      19.746    
  19.012      19.014      20.375      20.629      19.967      18.627      17.122      15.815      14.860      14.169    
  13.632      13.255      13.114      13.256      13.634      14.170      14.860      15.815      17.123      18.628    
  19.968      20.628      20.373      19.640      19.256      19.642      20.054      19.967      19.311      18.427    
  17.643      17.122      16.760      16.402      16.015      15.737      15.737      16.015      16.402      16.760    
  17.122      17.643      18.427      19.312      19.967      20.053      19.602      19.116      19.117      19.604    
  18.676      18.627      18.427      18.316      18.427      18.627      18.676      18.424      18.021      17.822    
  18.018      18.422      18.676      18.628      18.427      18.315      18.427      18.628      18.676      18.422    
  18.018      17.822      18.021      18.424      16.760      17.122      17.643      18.427      19.311      19.967    
  20.054      19.604      19.117      19.116      19.602      20.053      19.967      19.312      18.427      17.643    
  17.122      16.760      16.402      16.015      15.737      15.737      16.015      16.402      14.860      15.815    
  17.122      18.627      19.967      20.629      20.375      19.642      19.256      19.640      20.373      20.628    
  19.968      18.628      17.123      15.815      14.860      14.170      13.634      13.256      13.114      13.255    
  13.632      14.169      13.295      14.860      16.760      18.676      20.054      20.375      19.750      19.014    
  19.012      19.746      20.373      20.055      18.678      16.760      14.860      13.296      12.165      11.377    
  10.848      10.570      10.570      10.848      11.376      12.163      12.163      14.169      16.402      18.424    
  19.604      19.642      19.014      18.647      19.013      19.640      19.603      18.424      16.402      14.171    
  12.165      10.614      9.5233      8.7955      8.3665      8.2228      8.3673      8.7965      9.5237      10.614    
  11.376      13.632      16.015      18.021      19.117      19.256      19.012      19.013      19.257      19.117    
  18.020      16.014      13.633      11.378      9.5234      8.1678      7.2419      6.6578      6.3703      6.3693    
  6.6563      7.2421      8.1693      9.5237      10.848      13.255      15.737      17.822      19.116      19.640    
  19.746      19.640      19.117      17.824      15.738      13.254      10.847      8.7954      7.2419      6.1513    
  5.4308      5.0152      4.8781      5.0145      5.4300      6.1508      7.2421      8.7965      10.570      13.114    
  15.737      18.018      19.602      20.373      20.373      19.603      18.020      15.738      13.114      10.569    
  8.3666      6.6569      5.4309      4.5955      4.0699      3.8133      3.8139      4.0708      4.5956      5.4300    
  6.6563      8.3673      10.570      13.256      16.015      18.422      20.053      20.628      20.055      18.424    
  16.014      13.254      10.569      8.2241      6.3707      5.0145      4.0698      3.4461      3.0865      2.9679    
  3.0864      3.4467      4.0708      5.0145      6.3693      8.2228      10.848      13.634      16.402      18.676    
  19.967      19.968      18.678      16.402      13.633      10.847      8.3666      6.3707      4.8780      3.8134    
  3.0863      2.6300      2.4083      2.4079      2.6294      3.0864      3.8139      4.8781      6.3703      8.3665    
  11.377      14.170      16.760      18.628      19.312      18.628      16.760      14.171      11.378      8.7954    
  6.6569      5.0145      3.8134      2.9684      2.4081      2.0872      1.9826      2.0873      2.4079      2.9679    
  3.8133      5.0152      6.6578      8.7955      12.165      14.860      17.122      18.427      18.427      17.123    
  14.860      12.165      9.5234      7.2419      5.4309      4.0698      3.0863      2.4081      1.9826      1.7775    
  1.7775      1.9826      2.4083      3.0865      4.0699      5.4308      7.2419      9.5233      13.296      15.815    
  17.643      18.315      17.643      15.815      13.296      10.614      8.1678      6.1513      4.5955      3.4461    
  2.6300      2.0872      1.7775      1.6769      1.7775      2.0872      2.6300      3.4461      4.5955      6.1513    
  8.1678      10.614      14.860      17.123      18.427      18.427      17.122      14.860      12.165      9.5233    
  7.2419      5.4308      4.0699      3.0865      2.4083      1.9826      1.7775      1.7775      1.9826      2.4081    
  3.0863      4.0698      5.4309      7.2419      9.5234      12.165      16.760      18.628      19.312      18.628    
  16.760      14.170      11.377      8.7955      6.6578      5.0152      3.8133      2.9679      2.4079      2.0873    
  1.9826      2.0872      2.4081      2.9684      3.8134      5.0145      6.6569      8.7954      11.378      14.171    
  18.678      19.968      19.967      18.676      16.402      13.634      10.848      8.3665      6.3703      4.8781    
  3.8139      3.0864      2.6294      2.4079      2.4083      2.6300      3.0863      3.8134      4.8780      6.3707    
  8.3666      10.847      13.633      16.402      20.055      20.628      20.053      18.422      16.015      13.256    
  10.570      8.2228      6.3693      5.0145      4.0708      3.4467      3.0864      2.9679      3.0865      3.4461    
  4.0698      5.0145      6.3707      8.2241      10.569      13.254      16.014      18.424      20.373      20.373    
  19.602      18.018      15.737      13.114      10.570      8.3673      6.6563      5.4300      4.5956      4.0708    
  3.8139      3.8133      4.0699      4.5955      5.4309      6.6569      8.3666      10.569      13.114      15.738    
  18.020      19.603      19.746      19.640      19.116      17.822      15.737      13.255      10.848      8.7965    
  7.2421      6.1508      5.4300      5.0145      4.8781      5.0152      5.4308      6.1513      7.2419      8.7954    
  10.847      13.254      15.738      17.824      19.117      19.640      19.012      19.256      19.117      18.021    
  16.015      13.632      11.376      9.5237      8.1693      7.2421      6.6563      6.3693      6.3703      6.6578    
  7.2419      8.1678      9.5234      11.378      13.633      16.014      18.020      19.117      19.257      19.013    
  19.014      19.642      19.604      18.424      16.402      14.169      12.163      10.614      9.5237      8.7965    
  8.3673      8.2228      8.3665      8.7955      9.5233      10.614      12.165      14.171      16.402      18.424    
  19.603      19.640      19.013      18.647      18.891      18.806      18.026      16.760      15.396      14.233    
  13.394      12.797      12.334      12.007      11.885      12.007      12.334      12.797      13.394      14.233    
  15.396      16.760      18.026      18.806      18.891      18.547      18.336      18.547      18.806      18.615    
  17.958      17.122      16.395      15.925      15.608      15.299      14.969      14.736      14.738      14.972    
  15.300      15.608      15.923      16.394      17.123      17.958      18.615      18.806      18.538      18.198    
  18.198      18.538      18.026      17.958      17.755      17.643      17.755      17.958      18.026      17.819    
  17.471      17.298      17.470      17.819      18.026      17.958      17.755      17.643      17.755      17.958    
  18.026      17.819      17.471      17.298      17.470      17.819      16.760      17.122      17.643      18.427    
  19.312      19.967      20.054      19.604      19.117      19.116      19.602      20.053      19.967      19.312    
  18.427      17.643      17.122      16.760      16.402      16.015      15.737      15.737      16.015      16.402    
  15.396      16.395      17.755      19.312      20.672      21.271      20.867      19.969      19.512      19.969    
  20.867      21.271      20.672      19.311      17.755      16.395      15.396      14.671      14.107      13.709    
  13.560      13.709      14.107      14.671      14.233      15.925      17.958      19.967      21.271      21.270    
  20.175      19.087      19.088      20.176      21.272      21.272      19.967      17.957      15.924      14.232    
  13.005      12.151      11.579      11.279      11.279      11.580      12.151      13.004      13.394      15.608    