unknown system                          
   3.56700000000000     
     0.500000    0.500000    0.000000
     0.000000    0.500000    0.500000
     0.500000    0.000000    0.500000
   C 
     2
Direct
  0.000000  0.000000  0.000000
  0.250000  0.250000  0.250000
 
   24   24   24
 0.16117763698E+02 0.16998457462E+02 0.18783022156E+02 0.19749354605E+02 0.18890740530E+02
 0.16552538848E+02 0.13744683886E+02 0.11188661863E+02 0.91635779249E+01 0.77352466740E+01
 0.68149132447E+01 0.63050809472E+01 0.61424531720E+01 0.63051472511E+01 0.68149719412E+01
 0.77352396357E+01 0.91635312732E+01 0.11188652814E+02 0.13744752092E+02 0.16552647355E+02
 0.18890820499E+02 0.19749371518E+02 0.18782994907E+02 0.16998428757E+02 0.16998457462E+02
 0.18541981333E+02 0.20174465088E+02 0.20374931445E+02 0.18805996422E+02 0.16239248947E+02
 0.13601585897E+02 0.11359595046E+02 0.96956083512E+01 0.85697854597E+01 0.78785195002E+01
 0.75499524579E+01 0.75511419182E+01 0.78801784782E+01 0.85691405283E+01 0.96933358858E+01
 0.11358809101E+02 0.13602984077E+02 0.16239955092E+02 0.18804166940E+02 0.20373221174E+02
 0.20176651266E+02 0.18547134606E+02 0.17001223804E+02 0.18783022156E+02 0.20174465088E+02
 0.20867138410E+02 0.20054127488E+02 0.18026428862E+02 0.15608343935E+02 0.13394663759E+02
 0.11661055024E+02 0.10442874374E+02 0.96395294922E+01 0.91728711508E+01 0.90179199053E+01
 0.91729163898E+01 0.96395325169E+01 0.10442833391E+02 0.11661025634E+02 0.13394601967E+02
 0.15608206546E+02 0.18026361947E+02 0.20054285672E+02 0.20867381738E+02 0.20174530833E+02
 0.18782937418E+02 0.18087094788E+02 0.19749354605E+02 0.20374931445E+02 0.20054127488E+02
 0.18676354893E+02 0.16760207896E+02 0.14860404205E+02 0.13295455483E+02 0.12163434845E+02
 0.11376214398E+02 0.10848216372E+02 0.10570179262E+02 0.10569712980E+02 0.10847631922E+02
 0.11376721209E+02 0.12164711447E+02 0.13295962986E+02 0.14859748509E+02 0.16759973010E+02
 0.18677611367E+02 0.20055119369E+02 0.20373075914E+02 0.19745363882E+02 0.19012266966E+02
 0.19014390058E+02 0.18890740530E+02 0.18805996422E+02 0.18026428862E+02 0.16760207896E+02
 0.15395790810E+02 0.14232411888E+02 0.13394596939E+02 0.12796871156E+02 0.12333463050E+02
 0.12006876436E+02 0.11885205991E+02 0.12007118546E+02 0.12333494551E+02 0.12796649312E+02
 0.13394561204E+02 0.14232651817E+02 0.15395907044E+02 0.16760070751E+02 0.18026346658E+02
 0.18806057960E+02 0.18890689479E+02 0.18547331031E+02 0.18336003686E+02 0.18547502079E+02
 0.16552538848E+02 0.16239248947E+02 0.15608343935E+02 0.14860404205E+02 0.14232411888E+02
 0.13842820057E+02 0.13601761521E+02 0.13371371095E+02 0.13128803971E+02 0.12958362978E+02
 0.12958307093E+02 0.13128495500E+02 0.13370796380E+02 0.13601321305E+02 0.13842678411E+02
 0.14232111381E+02 0.14859718299E+02 0.15607989100E+02 0.16240074658E+02 0.16554350314E+02
 0.16530864490E+02 0.16393617891E+02 0.16392938922E+02 0.16529145644E+02 0.13744683886E+02
 0.13601585897E+02 0.13394663759E+02 0.13295455483E+02 0.13394596939E+02 0.13601761521E+02
 0.13745045898E+02 0.13746098164E+02 0.13654447693E+02 0.13600478853E+02 0.13654423745E+02
 0.13745914189E+02 0.13744832127E+02 0.13601760666E+02 0.13394668575E+02 0.13295314579E+02
 0.13394493987E+02 0.13601765273E+02 0.13745031818E+02 0.13745970166E+02 0.13654311766E+02
 0.13600495459E+02 0.13654554923E+02 0.13745951709E+02 0.11188661863E+02 0.11359595046E+02
 0.11661055024E+02 0.12163434845E+02 0.12796871156E+02 0.13371371095E+02 0.13746098164E+02
 0.13893298341E+02 0.13909463431E+02 0.13910127773E+02 0.13894299631E+02 0.13746090389E+02
 0.13370845857E+02 0.12797318641E+02 0.12164862365E+02 0.11661800185E+02 0.11358622671E+02
 0.11186871313E+02 0.11038177865E+02 0.10878986293E+02 0.10766903917E+02 0.10766738276E+02
 0.10879037549E+02 0.11039267295E+02 0.91635779249E+01 0.96956083512E+01 0.10442874374E+02
 0.11376214398E+02 0.12333463050E+02 0.13128803971E+02 0.13654447693E+02 0.13909463431E+02
 0.13977553959E+02 0.13909635011E+02 0.13654511514E+02 0.13128742570E+02 0.12333546651E+02
 0.11376449960E+02 0.10442933486E+02 0.96953839120E+01 0.91633536314E+01 0.87863658393E+01
 0.85034954226E+01 0.83085817370E+01 0.82364541973E+01 0.83085700503E+01 0.85034393886E+01
 0.87863906797E+01 0.77352466740E+01 0.85697854597E+01 0.96395294922E+01 0.10848216372E+02
 0.12006876436E+02 0.12958362978E+02 0.13600478853E+02 0.13910127773E+02 0.13909635011E+02
 0.13599711893E+02 0.12958328034E+02 0.12007213846E+02 0.10847665005E+02 0.96380602710E+01
 0.85691575853E+01 0.77367158562E+01 0.71276647130E+01 0.66866041015E+01 0.63809454860E+01
 0.62185779999E+01 0.62194372128E+01 0.63821074923E+01 0.66859086335E+01 0.71253890935E+01
 0.68149132447E+01 0.78785195002E+01 0.91728711508E+01 0.10570179262E+02 0.11885205991E+02
 0.12958307093E+02 0.13654423745E+02 0.13894299631E+02 0.13654511514E+02 0.12958328034E+02
 0.11885129436E+02 0.10570139679E+02 0.91729250010E+01 0.78785897265E+01 0.68149761572E+01
 0.60082220132E+01 0.54200735469E+01 0.50056699015E+01 0.47493875848E+01 0.46612175952E+01
 0.47495106286E+01 0.50057314932E+01 0.54200017590E+01 0.60081242533E+01 0.63050809472E+01
 0.75499524579E+01 0.90179199053E+01 0.10569712980E+02 0.12007118546E+02 0.13128495500E+02
 0.13745914189E+02 0.13746090389E+02 0.13128742570E+02 0.12007213846E+02 0.10570139679E+02
 0.90190882929E+01 0.75510840475E+01 0.63048026616E+01 0.53276208026E+01 0.46005769817E+01
 0.40814605656E+01 0.37391955019E+01 0.35655506123E+01 0.35648016337E+01 0.37379653679E+01
 0.40815428281E+01 0.46023104999E+01 0.53294346600E+01 0.61424531720E+01 0.75511419182E+01
 0.91729163898E+01 0.10847631922E+02 0.12333494551E+02 0.13370796380E+02 0.13744832127E+02
 0.13370845857E+02 0.12333546651E+02 0.10847665005E+02 0.91729250010E+01 0.75510840475E+01
 0.61423125499E+01 0.50091550206E+01 0.41448575709E+01 0.35138671693E+01 0.30814777623E+01
 0.28268243584E+01 0.27423598993E+01 0.28268423833E+01 0.30814379449E+01 0.35137888806E+01
 0.41448640358E+01 0.50092831861E+01 0.63051472511E+01 0.78801784782E+01 0.96395325169E+01
 0.11376721209E+02 0.12796649312E+02 0.13601321305E+02 0.13601760666E+02 0.12797318641E+02
 0.11376449960E+02 0.96380602710E+01 0.78785897265E+01 0.63048026616E+01 0.50091550206E+01
 0.39992816747E+01 0.32446859597E+01 0.27099412209E+01 0.23678459905E+01 0.22012001349E+01
 0.22016113736E+01 0.23686647209E+01 0.27102399885E+01 0.32438267234E+01 0.39976404847E+01
 0.50079912093E+01 0.68149719412E+01 0.85691405283E+01 0.10442833391E+02 0.12164711447E+02
 0.13394561204E+02 0.13842678411E+02 0.13394668575E+02 0.12164862365E+02 0.10442933486E+02
 0.85691575853E+01 0.68149761572E+01 0.53276208026E+01 0.41448575709E+01 0.32446859597E+01
 0.25896237526E+01 0.21472346154E+01 0.18930582760E+01 0.18103792645E+01 0.18930092977E+01
 0.21472432373E+01 0.25897082198E+01 0.32447372554E+01 0.41448205603E+01 0.53275709608E+01
 0.77352396357E+01 0.96933358858E+01 0.11661025634E+02 0.13295962986E+02 0.14232651817E+02
 0.14232111381E+02 0.13295314579E+02 0.11661800185E+02 0.96953839120E+01 0.77367158562E+01
 0.60082220132E+01 0.46005769817E+01 0.35138671693E+01 0.27099412209E+01 0.21472346154E+01
 0.17927544030E+01 0.16224264079E+01 0.16223179700E+01 0.17923646396E+01 0.21467494903E+01
 0.27101063374E+01 0.35152002104E+01 0.46022924577E+01 0.60086626476E+01 0.91635312732E+01
 0.11358809101E+02 0.13394601967E+02 0.14859748509E+02 0.15395907044E+02 0.14859718299E+02
 0.13394493987E+02 0.11358622671E+02 0.91633536314E+01 0.71276647130E+01 0.54200735469E+01
 0.40814605656E+01 0.30814777623E+01 0.23678459905E+01 0.18930582760E+01 0.16224264079E+01
 0.15346555459E+01 0.16224192621E+01 0.18930473492E+01 0.23678221074E+01 0.30814225256E+01
 0.40813838021E+01 0.54200377978E+01 0.71277392772E+01 0.11188652814E+02 0.13602984077E+02
 0.15608206546E+02 0.16759973010E+02 0.16760070751E+02 0.15607989100E+02 0.13601765273E+02
 0.11186871313E+02 0.87863658393E+01 0.66866041015E+01 0.50056699015E+01 0.37391955019E+01
 0.28268243584E+01 0.22012001349E+01 0.18103792645E+01 0.16223179700E+01 0.16224192621E+01
 0.18107259120E+01 0.22016264431E+01 0.28267132234E+01 0.37380875179E+01 0.50041284578E+01
 0.66859637655E+01 0.87873289350E+01 0.13744752092E+02 0.16239955092E+02 0.18026361947E+02
 0.18677611367E+02 0.18026346658E+02 0.16240074658E+02 0.13745031818E+02 0.11038177865E+02
 0.85034954226E+01 0.63809454860E+01 0.47493875848E+01 0.35655506123E+01 0.27423598993E+01
 0.22016113736E+01 0.18930092977E+01 0.17923646396E+01 0.18930473492E+01 0.22016264431E+01
 0.27423338458E+01 0.35655647766E+01 0.47495156009E+01 0.63811009052E+01 0.85034825436E+01
 0.11037939262E+02 0.16552647355E+02 0.18804166940E+02 0.20054285672E+02 0.20055119369E+02
 0.18806057960E+02 0.16554350314E+02 0.13745970166E+02 0.10878986293E+02 0.83085817370E+01
 0.62185779999E+01 0.46612175952E+01 0.35648016337E+01 0.28268423833E+01 0.23686647209E+01
 0.21472432373E+01 0.21467494903E+01 0.23678221074E+01 0.28267132234E+01 0.35655647766E+01
 0.46621998243E+01 0.62192726882E+01 0.83089960106E+01 0.10879039185E+02 0.13745219045E+02
 0.18890820499E+02 0.20373221174E+02 0.20867381738E+02 0.20373075914E+02 0.18890689479E+02
 0.16530864490E+02 0.13654311766E+02 0.10766903917E+02 0.82364541973E+01 0.62194372128E+01
 0.47495106286E+01 0.37379653679E+01 0.30814379449E+01 0.27102399885E+01 0.25897082198E+01
 0.27101063374E+01 0.30814225256E+01 0.37380875179E+01 0.47495156009E+01 0.62192726882E+01
 0.82363670422E+01 0.10767008897E+02 0.13654453772E+02 0.16530957926E+02 0.19749371518E+02
 0.20176651266E+02 0.20174530833E+02 0.19745363882E+02 0.18547331031E+02 0.16393617891E+02
 0.13600495459E+02 0.10766738276E+02 0.83085700503E+01 0.63821074923E+01 0.50057314932E+01
 0.40815428281E+01 0.35137888806E+01 0.32438267234E+01 0.32447372554E+01 0.35152002104E+01
 0.40813838021E+01 0.50041284578E+01 0.63811009052E+01 0.83089960106E+01 0.10767008897E+02
 0.13599354697E+02 0.16392727728E+02 0.18549250118E+02 0.18782994907E+02 0.18547134606E+02
 0.18782937418E+02 0.19012266966E+02 0.18336003686E+02 0.16392938922E+02 0.13654554923E+02
 0.10879037549E+02 0.85034393886E+01 0.66859086335E+01 0.54200017590E+01 0.46023104999E+01
 0.41448640358E+01 0.39976404847E+01 0.41448205603E+01 0.46022924577E+01 0.54200377978E+01
 0.66859637655E+01 0.85034825436E+01 0.10879039185E+02 0.13654453772E+02 0.16392727728E+02
 0.18335812516E+02 0.19012227868E+02 0.16998428757E+02 0.17001223804E+02 0.18087094788E+02
 0.19014390058E+02 0.18547502079E+02 0.16529145644E+02 0.13745951709E+02 0.11039267295E+02
 0.87863906797E+01 0.71253890935E+01 0.60081242533E+01 0.53294346600E+01 0.50092831861E+01
 0.50079912093E+01 0.53275709608E+01 0.60086626476E+01 0.71277392772E+01 0.87873289350E+01
 0.11037939262E+02 0.13745219045E+02 0.16530957926E+02 0.18549250118E+02 0.19012227868E+02
 0.18081908237E+02 0.16998568443E+02 0.18542194839E+02 0.20174608357E+02 0.20374978514E+02
 0.18806048047E+02 0.16239283460E+02 0.13601494650E+02 0.11359433010E+02 0.96955444995E+01
 0.85698257509E+01 0.78785296547E+01 0.75499230388E+01 0.75511754777E+01 0.78802480933E+01
 0.85691230511E+01 0.96932583674E+01 0.11358805354E+02 0.13603032885E+02 0.16239914742E+02
 0.18804041417E+02 0.20373141852E+02 0.20176628481E+02 0.18547081011E+02 0.17001187283E+02
 0.18542194839E+02 0.20258466370E+02 0.21270239547E+02 0.20628569718E+02 0.18615234006E+02
 0.16131813646E+02 0.13842826509E+02 0.12042915759E+02 0.10777944068E+02 0.99456526111E+01
 0.94640531629E+01 0.93050804791E+01 0.94648936385E+01 0.99456400365E+01 0.10776573035E+02
 0.12041735246E+02 0.13842764584E+02 0.16131484004E+02 0.18613370214E+02 0.20626970657E+02
 0.21272231408E+02 0.20264280644E+02 0.18547478844E+02 0.17710021332E+02 0.20174608357E+02
 0.21270239547E+02 0.21270762512E+02 0.19967383636E+02 0.17958588779E+02 0.15924793304E+02
 0.14232606914E+02 0.13004389258E+02 0.12151147465E+02 0.11579416818E+02 0.11279428785E+02
 0.11279319752E+02 0.11579259484E+02 0.12151259928E+02 0.13004720497E+02 0.14232487612E+02
 0.15923708822E+02 0.17957213955E+02 0.19967112774E+02 0.21271992623E+02 0.21271877533E+02
 0.20175552765E+02 0.19087614696E+02 0.19087387420E+02 0.20374978514E+02 0.20628569718E+02
 0.19967383636E+02 0.18626819601E+02 0.17122366624E+02 0.15815442529E+02 0.14860453386E+02
 0.14169291110E+02 0.13631978879E+02 0.13254599711E+02 0.13114505922E+02 0.13256432888E+02
 0.13633810243E+02 0.14169682231E+02 0.14859727864E+02 0.15814799563E+02 0.17122509986E+02
 0.18627570970E+02 0.19967879768E+02 0.20627793740E+02 0.20372871420E+02 0.19640131191E+02
 0.19256303019E+02 0.19642063792E+02 0.18806048047E+02 0.18615234006E+02 0.17958588779E+02
 0.17122366624E+02 0.16394629526E+02 0.15924639457E+02 0.15608320580E+02 0.15298652597E+02
 0.14969136592E+02 0.14736240057E+02 0.14737764168E+02 0.14972043695E+02 0.15300122469E+02
 0.15607736438E+02 0.15923585831E+02 0.16394303009E+02 0.17122428144E+02 0.17958377763E+02
 0.18614829693E+02 0.18805856210E+02 0.18538280011E+02 0.18198369129E+02 0.18198298519E+02
 0.18538213376E+02 0.16239283460E+02 0.16131813646E+02 0.15924793304E+02 0.15815442529E+02
 0.15924639457E+02 0.16131814477E+02 0.16239434392E+02 0.16138926572E+02 0.15919528315E+02
 0.15806607389E+02 0.15920850725E+02 0.16140576806E+02 0.16240448978E+02 0.16131826656E+02
 0.15923651606E+02 0.15813822628E+02 0.15923500294E+02 0.16131837123E+02 0.16240622695E+02
 0.16140601905E+02 0.15920724428E+02 0.15806636448E+02 0.15919707398E+02 0.16138940592E+02
 0.13601494650E+02 0.13842826509E+02 0.14232606914E+02 0.14860453386E+02 0.15608320580E+02
 0.16239434392E+02 0.16552784230E+02 0.16529099795E+02 0.16392714329E+02 0.16393577009E+02
 0.16530945041E+02 0.16554250995E+02 0.16239899780E+02 0.15608048965E+02 0.14859892429E+02
 0.14232068197E+02 0.13842528784E+02 0.13601401978E+02 0.13371005437E+02 0.13128492286E+02
 0.12958167095E+02 0.12958385173E+02 0.13128879146E+02 0.13371199731E+02 0.11359433010E+02
 0.12042915759E+02 0.13004389258E+02 0.14169291110E+02 0.15298652597E+02 0.16138926572E+02
 0.16529099795E+02 0.16567830853E+02 0.16531342819E+02 0.16568976314E+02 0.16530420452E+02
 0.16139700984E+02 0.15299069190E+02 0.14169790772E+02 0.13004885286E+02 0.12042925723E+02
 0.11358650434E+02 0.10875731425E+02 0.10507498366E+02 0.10247184010E+02 0.10150083960E+02
 0.10248290259E+02 0.10509138892E+02 0.10877189278E+02 0.96955444995E+01 0.10777944068E+02
 0.12151147465E+02 0.13631978879E+02 0.14969136592E+02 0.15919528315E+02 0.16392714329E+02
 0.16531342819E+02 0.16530352907E+02 0.16391117543E+02 0.15919562971E+02 0.14970869016E+02
 0.13633281597E+02 0.12150618721E+02 0.10776638268E+02 0.96952302007E+01 0.89143493017E+01
 0.83595893723E+01 0.79793187445E+01 0.77773574586E+01 0.77779032550E+01 0.79800902060E+01
 0.83594043281E+01 0.89136876613E+01 0.85698257509E+01 0.99456526111E+01 0.11579416818E+02
 0.13254599711E+02 0.14736240057E+02 0.15806607389E+02 0.16393577009E+02 0.16568976314E+02
 0.16391117543E+02 0.15804524633E+02 0.14736486158E+02 0.13255929241E+02 0.11579482314E+02
 0.99443203424E+01 0.85691067412E+01 0.75326130300E+01 0.67904589311E+01 0.62759257036E+01
 0.59606945966E+01 0.58527983941E+01 0.59609215257E+01 0.62752689462E+01 0.67888047050E+01
 0.75315610291E+01 0.78785296547E+01 0.94640531629E+01 0.11279428785E+02 0.13114505922E+02
 0.14737764168E+02 0.15920850725E+02 0.16530945041E+02 0.16530420452E+02 0.15919562971E+02
 0.14736486158E+02 0.13114097067E+02 0.11280144056E+02 0.94652066583E+01 0.78790922070E+01
 0.66380422278E+01 0.57306007079E+01 0.50927840005E+01 0.46745519287E+01 0.44623053761E+01
 0.44619901895E+01 0.46740498001E+01 0.50928297280E+01 0.57312079998E+01 0.66383985125E+01
 0.75499230388E+01 0.93050804791E+01 0.11279319752E+02 0.13256432888E+02 0.14972043695E+02
 0.16140576806E+02 0.16554250995E+02 0.16139700984E+02 0.14970869016E+02 0.13255929241E+02
 0.11280144056E+02 0.93067672975E+01 0.75510717311E+01 0.61399973535E+01 0.50822134324E+01
 0.43244977546E+01 0.38093694916E+01 0.35045127719E+01 0.34023771826E+01 0.35040593086E+01
 0.38094140173E+01 0.43256177741E+01 0.50836592075E+01 0.61403814837E+01 0.75511754777E+01
 0.94648936385E+01 0.11579259484E+02 0.13633810243E+02 0.15300122469E+02 0.16240448978E+02
 0.16239899780E+02 0.15299069190E+02 0.13633281597E+02 0.11579482314E+02 0.94652066583E+01
 0.75510717311E+01 0.59802543716E+01 0.47755622158E+01 0.38929962642E+01 0.32749136528E+01
 0.28790900226E+01 0.26846028587E+01 0.26847827707E+01 0.28793212378E+01 0.32747581266E+01
 0.38925907381E+01 0.47754300848E+01 0.59804903084E+01 0.78802480933E+01 0.99456400365E+01
 0.12151259928E+02 0.14169682231E+02 0.15607736438E+02 0.16131826656E+02 0.15608048965E+02
 0.14169790772E+02 0.12150618721E+02 0.99443203424E+01 0.78790922070E+01 0.61399973535E+01
 0.47755622158E+01 0.37537435395E+01 0.30189428560E+01 0.25237891206E+01 0.22375648322E+01
 0.21440503255E+01 0.22380032983E+01 0.25239940177E+01 0.30182803596E+01 0.37523834322E+01
 0.47744758554E+01 0.61400688729E+01 0.85691230511E+01 0.10776573035E+02 0.13004720497E+02
 0.14859727864E+02 0.15923585831E+02 0.15923651606E+02 0.14859892429E+02 0.13004885286E+02
 0.10776638268E+02 0.85691067412E+01 0.66380422278E+01 0.50822134324E+01 0.38929962642E+01
 0.30189428560E+01 0.24081371003E+01 0.20221975700E+01 0.18358244661E+01 0.18357989147E+01
 0.20221865501E+01 0.24082056805E+01 0.30190126156E+01 0.38929693650E+01 0.50821404517E+01
 0.66380274010E+01 0.96932583674E+01 0.12041735246E+02 0.14232487612E+02 0.15814799563E+02
 0.16394303009E+02 0.15813822628E+02 0.14232068197E+02 0.12042925723E+02 0.96952302007E+01
 0.75326130300E+01 0.57306007079E+01 0.43244977546E+01 0.32749136528E+01 0.25237891206E+01
 0.20221975700E+01 0.17356652160E+01 0.16426175846E+01 0.17353976095E+01 0.20218617986E+01
 0.25238983224E+01 0.32759108531E+01 0.43259798566E+01 0.57312899688E+01 0.75316154529E+01
 0.11358805354E+02 0.13842764584E+02 0.15923708822E+02 0.17122509986E+02 0.17122428144E+02
 0.15923500294E+02 0.13842528784E+02 0.11358650434E+02 0.89143493017E+01 0.67904589311E+01
 0.50927840005E+01 0.38093694916E+01 0.28790900226E+01 0.22375648322E+01 0.18358244661E+01
 0.16426175846E+01 0.16426197332E+01 0.18358184498E+01 0.22375392599E+01 0.28790583017E+01
 0.38093415563E+01 0.50927489080E+01 0.67904288017E+01 0.89143864495E+01 0.13603032885E+02
 0.16131484004E+02 0.17957213955E+02 0.18627570970E+02 0.17958377763E+02 0.16131837123E+02
 0.13601401978E+02 0.10875731425E+02 0.83595893723E+01 0.62759257036E+01 0.46745519287E+01
 0.35045127719E+01 0.26846028587E+01 0.21440503255E+01 0.18357989147E+01 0.17353976095E+01
 0.18358184498E+01 0.21443838538E+01 0.26849343148E+01 0.35039074882E+01 0.46728702718E+01
 0.62746345334E+01 0.83602908344E+01 0.10878005956E+02 0.16239914742E+02 0.18613370214E+02
 0.19967112774E+02 0.19967879768E+02 0.18614829693E+02 0.16240622695E+02 0.13371005437E+02
 0.10507498366E+02 0.79793187445E+01 0.59606945966E+01 0.44623053761E+01 0.34023771826E+01
 0.26847827707E+01 0.22380032983E+01 0.20221865501E+01 0.20218617986E+01 0.22375392599E+01
 0.26849343148E+01 0.34029974758E+01 0.44625792771E+01 0.59603982086E+01 0.79791528178E+01
 0.10507922235E+02 0.13371338938E+02 0.18804041417E+02 0.20626970657E+02 0.21271992623E+02
 0.20627793740E+02 0.18805856210E+02 0.16140601905E+02 0.13128492286E+02 0.10247184010E+02
 0.77773574586E+01 0.58527983941E+01 0.44619901895E+01 0.35040593086E+01 0.28793212378E+01
 0.25239940177E+01 0.24082056805E+01 0.25238983224E+01 0.28790583017E+01 0.35039074882E+01
 0.44625792771E+01 0.58543298276E+01 0.77789576942E+01 0.10247488070E+02 0.13127029531E+02
 0.16138306569E+02 0.20373141852E+02 0.21272231408E+02 0.21271877533E+02 0.20372871420E+02
 0.18538280011E+02 0.15920724428E+02 0.12958167095E+02 0.10150083960E+02 0.77779032550E+01
 0.59609215257E+01 0.46740498001E+01 0.38094140173E+01 0.32747581266E+01 0.30182803596E+01
 0.30190126156E+01 0.32759108531E+01 0.38093415563E+01 0.46728702718E+01 0.59603982086E+01
 0.77789576942E+01 0.10151456146E+02 0.12958153738E+02 0.15919497487E+02 0.18537464009E+02
 0.20176628481E+02 0.20264280644E+02 0.20175552765E+02 0.19640131191E+02 0.18198369129E+02
 0.15806636448E+02 0.12958385173E+02 0.10248290259E+02 0.79800902060E+01 0.62752689462E+01
 0.50928297280E+01 0.43256177741E+01 0.38925907381E+01 0.37523834322E+01 0.38929693650E+01
 0.43259798566E+01 0.50927489080E+01 0.62746345334E+01 0.79791528178E+01 0.10247488070E+02
 0.12958153738E+02 0.15807240800E+02 0.18199724715E+02 0.19641723174E+02 0.18547081011E+02
 0.18547478844E+02 0.19087614696E+02 0.19256303019E+02 0.18198298519E+02 0.15919707398E+02
 0.13128879146E+02 0.10509138892E+02 0.83594043281E+01 0.67888047050E+01 0.57312079998E+01
 0.50836592075E+01 0.47754300848E+01 0.47744758554E+01 0.50821404517E+01 0.57312899688E+01
 0.67904288017E+01 0.83602908344E+01 0.10507922235E+02 0.13127029531E+02 0.15919497487E+02
 0.18199724715E+02 0.19257376442E+02 0.19087378232E+02 0.17001187283E+02 0.17710021332E+02
 0.19087387420E+02 0.19642063792E+02 0.18538213376E+02 0.16138940592E+02 0.13371199731E+02
 0.10877189278E+02 0.89136876613E+01 0.75315610291E+01 0.66383985125E+01 0.61403814837E+01
 0.59804903084E+01 0.61400688729E+01 0.66380274010E+01 0.75316154529E+01 0.89143864495E+01
 0.10878005956E+02 0.13371338938E+02 0.16138306569E+02 0.18537464009E+02 0.19641723174E+02
 0.19087378232E+02 0.17710068099E+02 0.18783264669E+02 0.20174757369E+02 0.20867206936E+02
 0.20054024455E+02 0.18026374773E+02 0.15608292405E+02 0.13394455211E+02 0.11660829097E+02
 0.10442879940E+02 0.96396758205E+01 0.91729004413E+01 0.90178690932E+01 0.91729797618E+01
 0.96396335243E+01 0.10442773572E+02 0.11660899753E+02 0.13394625611E+02 0.15608285054E+02
 0.18026264855E+02 0.20054096290E+02 0.20867345200E+02 0.20174613173E+02 0.18782960592E+02
 0.18087140887E+02 0.20174757369E+02 0.21270340551E+02 0.21270705665E+02 0.19967245523E+02
 0.17958495164E+02 0.15924721058E+02 0.14232501184E+02 0.13004335244E+02 0.12151229208E+02
 0.11579534705E+02 0.11279450971E+02 0.11279291443E+02 0.11579278586E+02 0.12151278598E+02
 0.13004660119E+02 0.14232417792E+02 0.15923717664E+02 0.17957227901E+02 0.19967037765E+02
 0.21271909528E+02 0.21271908205E+02 0.20175655436E+02 0.19087694718E+02 0.19087478837E+02
 0.20867206936E+02 0.21270705665E+02 0.20671953001E+02 0.19311675970E+02 0.17755179081E+02
 0.16394717642E+02 0.15395916690E+02 0.14670808567E+02 0.14106982570E+02 0.13709248523E+02
 0.13560293142E+02 0.13709360554E+02 0.14106890721E+02 0.14670560667E+02 0.15395903107E+02
 0.16394937183E+02 0.17755208290E+02 0.19311426883E+02 0.20671806146E+02 0.21270821237E+02
 0.20867325174E+02 0.19969413348E+02 0.19512140724E+02 0.19969426587E+02 0.20054024455E+02
 0.19967245523E+02 0.19311675970E+02 0.18426830392E+02 0.17643029331E+02 0.17122221965E+02
 0.16760104975E+02 0.16402087100E+02 0.16014624719E+02 0.15736951560E+02 0.15736972699E+02
 0.16014641863E+02 0.16402099761E+02 0.16760231470E+02 0.17122499524E+02 0.17643408434E+02
 0.18427372702E+02 0.19312279615E+02 0.19967190086E+02 0.20052588279E+02 0.19601802188E+02
 0.19115972661E+02 0.19117055219E+02 0.19603992766E+02 0.18026374773E+02 0.17958495164E+02
 0.17755179081E+02 0.17643029331E+02 0.17754986825E+02 0.17958326977E+02 0.18026288544E+02
 0.17819297044E+02 0.17470406797E+02 0.17297668940E+02 0.17470553736E+02 0.17819426093E+02
 0.18026374511E+02 0.17958467405E+02 0.17755111048E+02 0.17642972422E+02 0.17755017103E+02
 0.17958449513E+02 0.18026416558E+02 0.17819343499E+02 0.17470373108E+02 0.17297621559E+02
 0.17470534455E+02 0.17819422615E+02 0.15608292405E+02 0.15924721058E+02 0.16394717642E+02
 0.17122221965E+02 0.17958326977E+02 0.18615142357E+02 0.18806078282E+02 0.18538141376E+02
 0.18198207702E+02 0.18198477578E+02 0.18538463632E+02 0.18805845448E+02 0.18614712704E+02
 0.17958416149E+02 0.17122547205E+02 0.16394258864E+02 0.15923460962E+02 0.15607770101E+02
 0.15300224519E+02 0.14971978147E+02 0.14737643126E+02 0.14736333290E+02 0.14969357204E+02
 0.15298726028E+02 0.13394455211E+02 0.14232501184E+02 0.15395916690E+02 0.16760104975E+02
 0.18026288544E+02 0.18806078282E+02 0.18890848293E+02 0.18547375598E+02 0.18335844123E+02
 0.18547407263E+02 0.18890809436E+02 0.18805958795E+02 0.18026221750E+02 0.16760180305E+02
 0.15396053502E+02 0.14232571744E+02 0.13394450921E+02 0.12796772151E+02 0.12333653179E+02
 0.12007045998E+02 0.11885093281E+02 0.12006983444E+02 0.12333593873E+02 0.12796765557E+02
 0.11660829097E+02 0.13004335244E+02 0.14670808567E+02 0.16402087100E+02 0.17819297044E+02
 0.18538141376E+02 0.18547375598E+02 0.18305039921E+02 0.18304919197E+02 0.18547304899E+02
 0.18538423602E+02 0.17819580739E+02 0.16401914427E+02 0.14670565299E+02 0.13004870292E+02
 0.11662026106E+02 0.10694401201E+02 0.10016149943E+02 0.95568114344E+01 0.93143200697E+01
 0.93154799061E+01 0.95591473091E+01 0.10017513047E+02 0.10693945409E+02 0.10442879940E+02
 0.12151229208E+02 0.14106982570E+02 0.16014624719E+02 0.17470406797E+02 0.18198207702E+02
 0.18335844123E+02 0.18304919197E+02 0.18335830125E+02 0.18198304574E+02 0.17470541039E+02
 0.16014574160E+02 0.14106768005E+02 0.12151103296E+02 0.10442911836E+02 0.91438611425E+01
 0.82246641538E+01 0.76005019373E+01 0.72249322837E+01 0.70972579613E+01 0.72248498408E+01
 0.76004868816E+01 0.82247131527E+01 0.91438434987E+01 0.96396758205E+01 0.11579534705E+02
 0.13709248523E+02 0.15736951560E+02 0.17297668940E+02 0.18198477578E+02 0.18547407263E+02
 0.18547304899E+02 0.18198304574E+02 0.17297614473E+02 0.15736984771E+02 0.13709185151E+02
 0.11579225239E+02 0.96390919504E+01 0.80914040169E+01 0.69656564985E+01 0.61869740098E+01
 0.56852625395E+01 0.54337307077E+01 0.54329582337E+01 0.56836736334E+01 0.61859004392E+01
 0.69656444906E+01 0.80920039605E+01 0.91729004413E+01 0.11279450971E+02 0.13560293142E+02
 0.15736972699E+02 0.17470553736E+02 0.18538463632E+02 0.18890809436E+02 0.18538423602E+02
 0.17470541039E+02 0.15736984771E+02 0.13560273109E+02 0.11279433159E+02 0.91729759545E+01
 0.74396333093E+01 0.61445058544E+01 0.52301600727E+01 0.46168633458E+01 0.42568071371E+01
 0.41368525589E+01 0.42568496061E+01 0.46169591894E+01 0.52302327496E+01 0.61444537832E+01
 0.74394983095E+01 0.90178690932E+01 0.11279291443E+02 0.13709360554E+02 0.16014641863E+02
 0.17819426093E+02 0.18805845448E+02 0.18805958795E+02 0.17819580739E+02 0.16014574160E+02
 0.13709185151E+02 0.11279433159E+02 0.90184853037E+01 0.71259498315E+01 0.56797968189E+01
 0.46375564273E+01 0.39187926087E+01 0.34611564283E+01 0.32357831693E+01 0.32359849077E+01
 0.34617637754E+01 0.39196358206E+01 0.46381511341E+01 0.56797046887E+01 0.71252925028E+01
 0.91729797618E+01 0.11579278586E+02 0.14106890721E+02 0.16402099761E+02 0.18026374511E+02
 0.18614712704E+02 0.18026221750E+02 0.16401914427E+02 0.14106768005E+02 0.11579225239E+02
 0.91729759545E+01 0.71259498315E+01 0.55289831596E+01 0.43526378837E+01 0.35212232582E+01
 0.29658253502E+01 0.26441874351E+01 0.25383005420E+01 0.26440550521E+01 0.29657130176E+01
 0.35212175209E+01 0.43526721692E+01 0.55289804279E+01 0.71259264680E+01 0.96396335243E+01
 0.12151278598E+02 0.14670560667E+02 0.16760231470E+02 0.17958467405E+02 0.17958416149E+02
 0.16760180305E+02 0.14670565299E+02 0.12151103296E+02 0.96390919504E+01 0.74396333093E+01
 0.56797968189E+01 0.43526378837E+01 0.33915544313E+01 0.27262370081E+01 0.23061552608E+01
 0.21024044666E+01 0.21024531090E+01 0.23061293355E+01 0.27258536718E+01 0.33908651475E+01
 0.43521306059E+01 0.56799124497E+01 0.74402374346E+01 0.10442773572E+02 0.13004660119E+02
 0.15395903107E+02 0.17122499524E+02 0.17755111048E+02 0.17122547205E+02 0.15396053502E+02
 0.13004870292E+02 0.10442911836E+02 0.80914040169E+01 0.61445058544E+01 0.46375564273E+01
 0.35212232582E+01 0.27262370081E+01 0.21958024667E+01 0.18920422264E+01 0.17932131356E+01
 0.18920830555E+01 0.21958936598E+01 0.27263283700E+01 0.35212489970E+01 0.46375394603E+01
 0.61445037898E+01 0.80913761254E+01 0.11660899753E+02 0.14232417792E+02 0.16394937183E+02
 0.17643408434E+02 0.17642972422E+02 0.16394258864E+02 0.14232571744E+02 0.11662026106E+02
 0.91438611425E+01 0.69656564985E+01 0.52301600727E+01 0.39187926087E+01 0.29658253502E+01
 0.23061552608E+01 0.18920422264E+01 0.16928055826E+01 0.16927539999E+01 0.18919085582E+01
 0.23061073449E+01 0.29661838997E+01 0.39196200341E+01 0.52308887339E+01 0.69654938888E+01
 0.91427428243E+01 0.13394625611E+02 0.15923717664E+02 0.17755208290E+02 0.18427372702E+02
 0.17755017103E+02 0.15923460962E+02 0.13394450921E+02 0.10694401201E+02 0.82246641538E+01
 0.61869740098E+01 0.46168633458E+01 0.34611564283E+01 0.26441874351E+01 0.21024044666E+01
 0.17932131356E+01 0.16927539999E+01 0.17932394513E+01 0.21023643414E+01 0.26440693647E+01
 0.34610685538E+01 0.46168694851E+01 0.61870128923E+01 0.82246808403E+01 0.10694455829E+02
 0.15608285054E+02 0.17957227901E+02 0.19311426883E+02 0.19312279615E+02 0.17958449513E+02
 0.15607770101E+02 0.12796772151E+02 0.10016149943E+02 0.76005019373E+01 0.56852625395E+01
 0.42568071371E+01 0.32357831693E+01 0.25383005420E+01 0.21024531090E+01 0.18920830555E+01
 0.18919085582E+01 0.21023643414E+01 0.25387391278E+01 0.32360823079E+01 0.42559213902E+01
 0.56835796683E+01 0.75998897452E+01 0.10017629180E+02 0.12798896571E+02 0.18026264855E+02
 0.19967037765E+02 0.20671806146E+02 0.19967190086E+02 0.18026416558E+02 0.15300224519E+02
 0.12333653179E+02 0.95568114344E+01 0.72249322837E+01 0.54337307077E+01 0.41368525589E+01
 0.32359849077E+01 0.26440550521E+01 0.23061293355E+01 0.21958936598E+01 0.23061073449E+01
 0.26440693647E+01 0.32360823079E+01 0.41369812024E+01 0.54337638282E+01 0.72248224005E+01
 0.95566610081E+01 0.12333562590E+02 0.15300145223E+02 0.20054096290E+02 0.21271909528E+02
 0.21270821237E+02 0.20052588279E+02 0.17819343499E+02 0.14971978147E+02 0.12007045998E+02
 0.93143200697E+01 0.70972579613E+01 0.54329582337E+01 0.42568496061E+01 0.34617637754E+01
 0.29657130176E+01 0.27258536718E+01 0.27263283700E+01 0.29661838997E+01 0.34610685538E+01
 0.42559213902E+01 0.54337638282E+01 0.70996200603E+01 0.93155290054E+01 0.12005355210E+02