    2    2    1    1
  0.5673086E+01  0.2522250E-09  0.2522250E-09  0.2522250E-09  0.5000000E-15
  1.000000000000000E-004
  CAR 
 unknown system                          
      8     84     32
 
  1. kpoint:   0.0000000E+00  0.0000000E+00  0.0000000E+00  0.4551661E-03
   1      -11.5988    1.00
   2        9.7390    0.93
   3        9.7402    0.93
   4        9.7402    0.93
   5       15.2800   -0.00
   6       15.2818   -0.00
   7       15.2818   -0.00
   8       23.2650    0.00
   9       28.7213    0.00
  10       36.3580    0.00
  11       36.3580    0.00
  12       37.0378    0.00
  13       37.0381    0.00
  14       37.0381    0.00
  15       44.0461    0.00
  16       56.9285    0.00
  17       56.9384    0.00
  18       56.9384    0.00
  19       77.3586    0.00
  20       77.3600    0.00
  21       77.3600    0.00
  22       81.6773    0.00
  23       81.6773    0.00
  24       84.2007    0.00
  25       84.2007    0.00
  26       84.2018    0.00
  27       89.9041    0.00
  28       89.9165    0.00
  29       89.9165    0.00
  30       96.5247    0.00
  31      109.0224    0.00
  32      109.0244    0.00
 
  2. kpoint:   0.7692308E-01  0.6529032E-18  0.6529032E-18  0.3641329E-02
   1      -11.4351    1.00
   2        8.6810    1.00
   3        9.4583    1.01
   4        9.4594    1.01
   5       15.6452    0.00
   6       15.6469    0.00
   7       15.9041    0.00
   8       23.3841    0.00
   9       28.9918    0.00
  10       34.2531    0.00
  11       34.2532    0.00
  12       36.4058    0.00
  13       39.8034    0.00
  14       39.8037    0.00
  15       45.3608    0.00
  16       56.1842    0.00
  17       56.5578    0.00
  18       56.5665    0.00
  19       75.3335    0.00
  20       75.3338    0.00
  21       78.4569    0.00
  22       80.0722    0.00
  23       80.0742    0.00
  24       84.3926    0.00
  25       87.7338    0.00
  26       87.7399    0.00
  27       88.5677    0.00
  28       90.4497    0.00
  29       90.4550    0.00
  30       95.6011    0.00
  31      107.2412    0.00
  32      107.2434    0.00
 
  3. kpoint:   0.1538462E+00  0.1378665E-17  0.1378665E-17  0.3641329E-02
   1      -10.9456    1.00
   2        6.4200    1.00
   3        8.8285    1.00
   4        8.8295    1.00
   5       16.4694    0.00
   6       16.4712    0.00
   7       16.9570    0.00
   8       23.7155    0.00
   9       29.5939    0.00
  10       32.6494    0.00
  11       32.6495    0.00
  12       35.4334    0.00
  13       43.4388    0.00
  14       43.4392    0.00
  15       48.4372    0.00
  16       54.7918    0.00
  17       55.2883    0.00
  18       55.2957    0.00
  19       71.7708    0.00
  20       71.7722    0.00
  21       79.9650    0.00
  22       79.9680    0.00
  23       81.0820    0.00
  24       84.9615    0.00
  25       85.2886    0.00
  26       87.1951    0.00
  27       87.2051    0.00
  28       93.8432    0.00
  29       96.2497    0.00
  30       96.2503    0.00
  31      100.7386    0.00
  32      100.7393    0.00
 
  4. kpoint:   0.2307692E+00 -0.3405055E-17 -0.3405055E-17  0.3641329E-02
   1      -10.1358    1.00
   2        3.8364    1.00
   3        8.1420    1.00
   4        8.1431    1.00
   5       17.2868    0.00
   6       17.2890    0.00
   7       17.7611    0.00
   8       24.1869    0.00
   9       30.0625    0.00
  10       32.0286    0.00
  11       32.0288    0.00
  12       34.9542    0.00
  13       47.5574    0.00
  14       47.5581    0.00
  15       52.3435    0.00
  16       52.9530    0.00
  17       52.9591    0.00
  18       53.7252    0.00
  19       69.3030    0.00
  20       69.3070    0.00
  21       79.7095    0.00
  22       79.9141    0.00
  23       79.9202    0.00
  24       85.2282    0.00
  25       85.2371    0.00
  26       85.8772    0.00
  27       86.0588    0.00
  28       91.9434    0.00
  29       93.9963    0.00
  30       93.9974    0.00
  31      102.7257    0.00
  32      102.7273    0.00
 
  5. kpoint:   0.3076923E+00  0.1182201E-17  0.1182201E-17  0.3641329E-02
   1       -9.0181    1.00
   2        1.2492    1.00
   3        7.5681    1.00
   4        7.5692    1.00
   5       17.8304    0.00
   6       17.8326    0.00
   7       18.2745    0.00
   8       24.6711    0.00
   9       30.3018    0.00
  10       32.4906    0.00
  11       32.4913    0.00
  12       34.7965    0.00
  13       49.7523    0.00
  14       49.7557    0.00
  15       52.2188    0.00
  16       52.2200    0.00
  17       53.1673    0.00
  18       57.3864    0.00
  19       68.1247    0.00
  20       68.1311    0.00
  21       75.1999    0.00
  22       78.4482    0.00
  23       78.4557    0.00
  24       84.1576    0.00
  25       84.1606    0.00
  26       87.1153    0.00
  27       88.7531    0.00
  28       88.7568    0.00
  29       88.7823    0.00
  30       90.2462    0.00
  31       96.7768    0.00
  32       99.5097    0.00
 
  6. kpoint:   0.3846154E+00  0.1034913E-16  0.1034913E-16  0.3641329E-02
   1       -7.6263    1.00
   2       -1.1750    1.00
   3        7.1658    1.00
   4        7.1669    1.00
   5       18.0578    0.00
   6       18.0599    0.00
   7       18.5702    0.00
   8       25.0010    0.00
   9       30.6794    0.00
  10       33.8226    0.00
  11       33.8240    0.00
  12       34.3884    0.00
  13       46.5525    0.00
  14       46.5541    0.00
  15       54.0408    0.00
  16       57.0543    0.00
  17       57.0560    0.00
  18       62.5033    0.00
  19       67.7091    0.00
  20       67.7171    0.00
  21       71.2513    0.00
  22       74.5245    0.00
  23       74.5289    0.00
  24       83.2309    0.00
  25       84.0135    0.00
  26       84.0159    0.00
  27       86.0190    0.00
  28       86.0246    0.00
  29       88.5245    0.00
  30       93.9115    0.00
  31       94.2846    0.00
  32       96.7520    0.00
 
  7. kpoint:   0.4615385E+00 -0.6810111E-17 -0.6810111E-17  0.3641329E-02
   1       -6.1379    1.00
   2       -3.1947    1.00
   3        6.9608    1.00
   4        6.9619    1.00
   5       18.1047    0.00
   6       18.1068    0.00
   7       18.7069    0.00
   8       25.1412    0.00
   9       31.1570    0.00
  10       33.8015    0.00
  11       35.2455    0.00
  12       35.2480    0.00
  13       44.1289    0.00
  14       44.1291    0.00
  15       55.2548    0.00
  16       61.8202    0.00
  17       61.8233    0.00
  18       65.7365    0.00
  19       67.2005    0.00
  20       67.2080    0.00
  21       70.1763    0.00
  22       70.1794    0.00
  23       70.9349    0.00
  24       76.7307    0.00
  25       83.3948    0.00
  26       83.3998    0.00
  27       85.8525    0.00
  28       85.8564    0.00
  29       89.6714    0.00
  30       93.1302    0.00
  31       95.0817    0.00
  32       95.0824    0.00
 
  8. kpoint:   0.7692308E-01  0.7692308E-01 -0.5993095E-18  0.2730997E-02
   1      -11.3806    1.00
   2        8.9399    1.00
   3        8.9406    1.00
   4        9.2238    1.00
   5       15.1053   -0.00
   6       16.2635    0.00
   7       16.2647    0.00
   8       23.3491    0.00
   9       29.0922    0.00
  10       32.3525    0.00
  11       36.6350    0.00
  12       37.5493    0.00
  13       37.5495    0.00
  14       40.3612    0.00
  15       46.1338    0.00
  16       56.1495    0.00
  17       56.1556    0.00
  18       56.5167    0.00
  19       75.9559    0.00
  20       75.9577    0.00
  21       75.9937    0.00
  22       77.5923    0.00
  23       82.5684    0.00
  24       85.9295    0.00
  25       85.9330    0.00
  26       88.8533    0.00
  27       89.8680    0.00
  28       89.8723    0.00
  29       90.3665    0.00
  30       94.9155    0.00
  31      106.1035    0.00
  32      107.9251    0.00
 
  9. kpoint:   0.1538462E+00  0.7692308E-01 -0.2537366E-19  0.1092399E-01
   1      -10.9998    1.00
   2        7.1836    1.00
   3        8.2058    1.00
   4        8.9354    1.00
   5       15.3585    0.00
   6       17.2284    0.00
   7       17.2637    0.00
   8       23.3838    0.00
   9       29.6191    0.00
  10       30.8585    0.00
  11       35.0951    0.00
  12       37.0166    0.00
  13       40.5617    0.00
  14       42.9564    0.00
  15       48.9779    0.00
  16       54.8597    0.00
  17       54.9299    0.00
  18       56.0060    0.00
  19       71.7582    0.00
  20       73.3187    0.00
  21       76.5421    0.00
  22       79.5089    0.00
  23       82.3388    0.00
  24       85.5125    0.00
  25       85.7155    0.00
  26       87.1209    0.00
  27       89.6716    0.00
  28       92.6502    0.00
  29       93.4238    0.00
  30       96.2965    0.00
  31      101.6899    0.00
  32      104.3810    0.00
 
 10. kpoint:   0.2307692E+00  0.7692308E-01 -0.1236057E-18  0.1092399E-01
   1      -10.2968    1.00
   2        4.7451    1.00
   3        7.5125    1.00
   4        8.3478    1.00
   5       16.1230    0.00
   6       18.1401    0.00
   7       18.1480    0.00
   8       23.4962    0.00
   9       30.1434    0.00
  10       30.3971    0.00
  11       34.1058    0.00
  12       36.1735    0.00
  13       44.4762    0.00
  14       46.8495    0.00
  15       52.6941    0.00
  16       52.7059    0.00
  17       53.5008    0.00
  18       54.7187    0.00
  19       68.9924    0.00
  20       70.3223    0.00
  21       77.2341    0.00
  22       80.6481    0.00
  23       81.1364    0.00
  24       83.7959    0.00
  25       85.0194    0.00
  26       85.5454    0.00
  27       90.0486    0.00
  28       90.4615    0.00
  29       95.8459    0.00
  30       97.9819    0.00
  31       99.7718    0.00
  32      101.0481    0.00
 
 11. kpoint:   0.3076923E+00  0.7692308E-01 -0.3405055E-17  0.1092399E-01
   1       -9.2814    1.00
   2        2.1835    1.00
   3        6.9833    1.00
   4        7.6576    1.00
   5       16.8884    0.00
   6       18.7007    0.00
   7       18.7269    0.00
   8       23.8062    0.00
   9       30.4183    0.00
  10       30.8427    0.00
  11       34.1428    0.00
  12       35.7267    0.00
  13       48.8366    0.00
  14       49.6144    0.00
  15       51.0928    0.00
  16       52.1797    0.00
  17       53.3596    0.00
  18       57.1815    0.00
  19       67.6591    0.00
  20       68.4123    0.00
  21       76.2141    0.00
  22       77.7573    0.00
  23       79.4053    0.00
  24       81.7222    0.00
  25       84.6477    0.00
  26       86.9142    0.00
  27       88.9692    0.00
  28       90.5251    0.00
  29       91.9824    0.00
  30       91.9913    0.00
  31       97.5338    0.00
  32       97.6062    0.00
 
 12. kpoint:   0.3846154E+00  0.7692308E-01  0.2757330E-17  0.1092399E-01
   1       -7.9771    1.00
   2       -0.2851    1.00
   3        6.6709    1.00
   4        7.0328    1.00
   5       17.3825    0.00
   6       18.8676    0.00
   7       19.0607    0.00
   8       24.3722    0.00
   9       30.4533    0.00
  10       32.0707    0.00
  11       35.0176    0.00
  12       35.3273    0.00
  13       46.3441    0.00
  14       49.4143    0.00
  15       53.0646    0.00
  16       53.6665    0.00
  17       56.7798    0.00
  18       61.9140    0.00
  19       67.2734    0.00
  20       67.5165    0.00
  21       71.9081    0.00
  22       75.0945    0.00
  23       76.3764    0.00
  24       81.0607    0.00
  25       83.4732    0.00
  26       85.0688    0.00
  27       86.3254    0.00
  28       87.5337    0.00
  29       92.3692    0.00
  30       93.0192    0.00
  31       94.0306    0.00
  32       94.4373    0.00
 
 13. kpoint:   0.4615385E+00  0.7692308E-01  0.7344586E-17  0.1092399E-01
   1       -6.4755    1.00
   2       -2.4779    1.00
   3        6.5548    1.00
   4        6.5870    1.00
   5       17.6710    0.00
   6       18.7581    0.00
   7       19.2211    0.00
   8       24.9359    0.00
   9       30.5774    0.00
  10       33.4069    0.00
  11       35.1443    0.00
  12       35.8100    0.00
  13       44.1406    0.00
  14       46.6119    0.00
  15       54.4378    0.00
  16       58.6716    0.00
  17       61.5477    0.00
  18       65.2638    0.00
  19       67.1800    0.00
  20       67.2639    0.00
  21       69.9679    0.00
  22       70.5400    0.00
  23       72.4560    0.00
  24       79.2320    0.00
  25       81.8127    0.00
  26       83.3807    0.00
  27       83.4715    0.00
  28       86.0403    0.00
  29       92.1419    0.00
  30       92.9190    0.00
  31       93.5673    0.00
  32       96.0557    0.00
 
 14. kpoint:  -0.4615385E+00  0.7692308E-01 -0.2553272E-16  0.1092399E-01
   1       -5.6818    1.00
   2       -3.4467    1.00
   3        6.2671    1.00
   4        6.7328    1.00
   5       17.9185    0.00
   6       18.5382    0.00
   7       19.2451    0.00
   8       25.1749    0.00
   9       30.6613    0.00
  10       33.7712    0.00
  11       34.9958    0.00
  12       36.0711    0.00
  13       44.5522    0.00
  14       44.8011    0.00
  15       54.9496    0.00
  16       61.6119    0.00
  17       62.8622    0.00
  18       65.6136    0.00
  19       66.9229    0.00
  20       67.5261    0.00
  21       69.0935    0.00
  22       69.1056    0.00
  23       72.4695    0.00
  24       75.8560    0.00
  25       81.8020    0.00
  26       83.0336    0.00
  27       83.2224    0.00
  28       85.9701    0.00
  29       91.1639    0.00
  30       92.6559    0.00
  31       94.2146    0.00
  32       96.0753    0.00
 
 15. kpoint:  -0.3846154E+00  0.7692308E-01  0.6810111E-17  0.1092399E-01
   1       -6.9832    1.00
   2       -1.7935    1.00
   3        6.1925    1.00
   4        7.0870    1.00
   5       18.1604    0.00
   6       18.2550    0.00
   7       19.1352    0.00
   8       24.9777    0.00
   9       30.5236    0.00
  10       33.0661    0.00
  11       33.9750    0.00
  12       36.4024    0.00
  13       45.2710    0.00
  14       47.0307    0.00
  15       53.6597    0.00
  16       57.0962    0.00
  17       60.6601    0.00
  18       64.4866    0.00
  19       66.8045    0.00
  20       67.3582    0.00
  21       70.3468    0.00
  22       71.9100    0.00
  23       73.7700    0.00
  24       80.7180    0.00
  25       81.2556    0.00
  26       84.1808    0.00
  27       84.6228    0.00
  28       85.7475    0.00
  29       91.7547    0.00
  30       93.1476    0.00
  31       93.8720    0.00
  32       95.3023    0.00
 
 16. kpoint:  -0.3076923E+00  0.7692308E-01 -0.8773998E-17  0.1092399E-01
   1       -8.4415    1.00
   2        0.5224    1.00
   3        6.3471    1.00
   4        7.6223    1.00
   5       17.8520    0.00
   6       18.3137    0.00
   7       18.8586    0.00
   8       24.4819    0.00
   9       30.4055    0.00
  10       31.3850    0.00
  11       33.6645    0.00
  12       36.3575    0.00
  13       47.7019    0.00
  14       50.1653    0.00
  15       50.8645    0.00
  16       53.6527    0.00
  17       55.9220    0.00
  18       59.8618    0.00
  19       67.3233    0.00
  20       67.5853    0.00
  21       73.3767    0.00
  22       76.7063    0.00
  23       77.6323    0.00
  24       80.7146    0.00
  25       83.9920    0.00
  26       85.6595    0.00
  27       86.3048    0.00
  28       90.0599    0.00
  29       91.7376    0.00
  30       91.9493    0.00
  31       94.8065    0.00
  32       95.1061    0.00
 
 17. kpoint:  -0.2307692E+00  0.7692308E-01 -0.4186742E-17  0.1092399E-01
   1       -9.6538    1.00
   2        3.0420    1.00
   3        6.7316    1.00
   4        8.2842    1.00
   5       17.2098    0.00
   6       18.1774    0.00
   7       18.3337    0.00
   8       23.9858    0.00
   9       30.3104    0.00
  10       30.5786    0.00
  11       32.9858    0.00
  12       36.6350    0.00
  13       46.4966    0.00
  14       50.6963    0.00
  15       51.1423    0.00
  16       53.1452    0.00
  17       53.1916    0.00
  18       55.0997    0.00
  19       68.2216    0.00
  20       68.4583    0.00
  21       77.8195    0.00
  22       78.6571    0.00
  23       79.8099    0.00
  24       82.2558    0.00
  25       83.9206    0.00
  26       87.5030    0.00
  27       89.7126    0.00
  28       90.2856    0.00
  29       91.0591    0.00
  30       95.1370    0.00
  31       97.7312    0.00
  32      100.2095    0.00
 
 18. kpoint:  -0.1538462E+00  0.7692308E-01  0.3405055E-17  0.1092399E-01
   1      -10.5666    1.00
   2        5.5891    1.00
   3        7.3323    1.00
   4        8.9707    1.00
   5       16.3919    0.00
   6       17.4425    0.00
   7       17.6842    0.00
   8       23.6791    0.00
   9       29.9743    0.00
  10       30.8549    0.00
  11       32.8404    0.00
  12       37.2928    0.00
  13       42.2617    0.00
  14       46.9237    0.00
  15       50.8167    0.00
  16       53.3400    0.00
  17       54.1720    0.00
  18       55.2155    0.00
  19       69.8738    0.00
  20       70.7260    0.00
  21       78.4556    0.00
  22       80.0800    0.00
  23       81.5270    0.00
  24       84.2324    0.00
  25       84.8944    0.00
  26       85.5319    0.00
  27       90.2639    0.00
  28       92.2892    0.00
  29       95.8370    0.00
  30       97.1432    0.00
  31      101.0556    0.00
  32      101.4015    0.00
 
 19. kpoint:  -0.7692308E-01  0.7692308E-01 -0.2808077E-17  0.5461994E-02
   1      -11.1628    1.00
   2        7.7691    1.00
   3        8.2038    1.00
   4        9.4609    1.01
   5       15.7154    0.00
   6       16.4339    0.00
   7       16.7757    0.00
   8       23.4977    0.00
   9       29.3850    0.00
  10       32.1411    0.00
  11       33.6208    0.00
  12       38.0727    0.00
  13       38.9796    0.00
  14       43.0959    0.00
  15       47.3807    0.00
  16       55.2356    0.00
  17       55.4892    0.00
  18       56.2469    0.00
  19       72.7154    0.00
  20       73.6247    0.00
  21       78.9327    0.00
  22       79.5413    0.00
  23       79.7379    0.00
  24       86.2171    0.00
  25       86.8871    0.00
  26       87.1940    0.00
  27       88.9182    0.00
  28       91.1558    0.00
  29       94.0958    0.00
  30       95.0243    0.00
  31      102.5922    0.00
  32      106.1700    0.00
 
 20. kpoint:   0.1538462E+00  0.1538462E+00 -0.1198619E-17  0.2730997E-02
   1      -10.7284    1.00
   2        7.4127    1.00
   3        7.4135    1.00
   4        7.8400    1.00
   5       14.7000   -0.00
   6       18.3200    0.00
   7       18.3215    0.00
   8       22.7249    0.00
   9       29.7084    0.00
  10       30.0624    0.00
  11       37.4635    0.00
  12       39.0588    0.00
  13       39.0592    0.00
  14       42.3372    0.00
  15       51.6844    0.00
  16       54.0108    0.00
  17       54.0155    0.00
  18       55.9010    0.00
  19       69.7204    0.00
  20       74.4979    0.00
  21       74.5013    0.00
  22       78.2512    0.00
  23       84.1114    0.00
  24       84.1190    0.00
  25       84.9966    0.00
  26       86.1027    0.00
  27       89.7882    0.00
  28       93.9137    0.00
  29       93.9138    0.00
  30       98.0582    0.00
  31      101.5299    0.00
  32      101.5322    0.00
 
 21. kpoint:   0.2307692E+00  0.1538462E+00  0.1404038E-17  0.1092399E-01
   1      -10.1345    1.00
   2        5.5610    1.00
   3        6.6931    1.00
   4        7.4458    1.00
   5       14.9074   -0.00
   6       19.3463    0.00
   7       19.3824    0.00
   8       22.0214    0.00
   9       29.5892    0.00
  10       30.6512    0.00
  11       36.6731    0.00
  12       38.7847    0.00
  13       42.1089    0.00
  14       45.0934    0.00
  15       52.2125    0.00
  16       52.6090    0.00
  17       55.1883    0.00
  18       55.4253    0.00
  19       66.9552    0.00
  20       72.3736    0.00
  21       74.6850    0.00
  22       80.0807    0.00
  23       81.1215    0.00
  24       82.1281    0.00
  25       84.4986    0.00
  26       85.9777    0.00
  27       87.3285    0.00
  28       95.1929    0.00
  29       96.6675    0.00
  30       98.0835    0.00
  31       98.2013    0.00
  32      101.3511    0.00
 
 22. kpoint:   0.3076923E+00  0.1538462E+00  0.2808077E-17  0.1092399E-01
   1       -9.2259    1.00
   2        3.2008    1.00
   3        6.1609    1.00
   4        6.7939    1.00
   5       15.6506    0.00
   6       20.0709    0.00
   7       20.1010    0.00
   8       21.7387    0.00
   9       30.2623    0.00
  10       30.9641    0.00
  11       36.2809    0.00
  12       38.0083    0.00
  13       46.2047    0.00
  14       49.2003    0.00
  15       49.4558    0.00
  16       52.0007    0.00
  17       54.2921    0.00
  18       59.2313    0.00
  19       65.4344    0.00
  20       69.8183    0.00
  21       75.4237    0.00
  22       76.2445    0.00
  23       79.5107    0.00
  24       79.8284    0.00
  25       84.3048    0.00
  26       85.3538    0.00
  27       88.4939    0.00
  28       92.5557    0.00
  29       93.0220    0.00
  30       96.1832    0.00
  31       98.1056    0.00
  32       98.1665    0.00
 
 23. kpoint:   0.3846154E+00  0.1538462E+00 -0.4005143E-18  0.1092399E-01
   1       -8.0207    1.00
   2        0.7955    1.00
   3        5.8650    1.00
   4        6.0264    1.00
   5       16.3298    0.00
   6       20.3632    0.00
   7       20.4770    0.00
   8       22.2643    0.00
   9       30.6488    0.00
  10       31.5157    0.00
  11       36.6160    0.00
  12       37.3789    0.00
  13       46.4053    0.00
  14       50.8389    0.00
  15       51.3746    0.00
  16       52.4714    0.00
  17       55.1226    0.00
  18       63.2809    0.00
  19       65.0438    0.00
  20       68.2442    0.00
  21       71.5482    0.00
  22       75.6614    0.00
  23       76.1793    0.00
  24       77.7242    0.00
  25       81.7469    0.00
  26       86.5608    0.00
  27       87.9107    0.00
  28       90.2929    0.00
  29       91.5493    0.00
  30       92.8351    0.00
  31       92.8357    0.00
  32       98.3676    0.00
 
 24. kpoint:   0.4615385E+00  0.1538462E+00  0.1182201E-17  0.1092399E-01
   1       -6.5745    1.00
   2       -1.4502    1.00
   3        5.3306    1.00
   4        5.8273    1.00
   5       16.7538    0.00
   6       20.2358    0.00
   7       20.6714    0.00
   8       23.4962    0.00
   9       30.0341    0.00
  10       32.8280    0.00
  11       36.6677    0.00
  12       36.9878    0.00
  13       44.5796    0.00
  14       50.1957    0.00
  15       52.8391    0.00
  16       55.7687    0.00
  17       60.1706    0.00
  18       64.6894    0.00
  19       65.1722    0.00
  20       67.7769    0.00
  21       69.7527    0.00
  22       71.2072    0.00
  23       74.5212    0.00
  24       77.8656    0.00
  25       79.8041    0.00
  26       83.0464    0.00
  27       84.9166    0.00
  28       87.5394    0.00
  29       90.3483    0.00
  30       90.5722    0.00
  31       95.6644    0.00
  32       97.5735    0.00
 
 25. kpoint:  -0.4615385E+00  0.1538462E+00 -0.6944071E-17  0.1092399E-01
   1       -5.2974    1.00
   2       -3.0533    1.00
   3        4.8002    1.00
   4        6.0420    1.00
   5       17.1131    0.00
   6       19.8808    0.00
   7       20.7141    0.00
   8       24.7392    0.00
   9       29.3275    0.00
  10       33.7620    0.00
  11       35.1076    0.00
  12       37.3534    0.00
  13       45.3299    0.00
  14       48.1164    0.00
  15       53.7261    0.00
  16       60.6600    0.00
  17       61.3084    0.00
  18       64.8122    0.00
  19       65.5477    0.00
  20       66.6501    0.00
  21       69.0029    0.00
  22       71.1117    0.00
  23       72.5547    0.00
  24       78.1439    0.00
  25       78.7964    0.00
  26       80.1509    0.00
  27       81.7136    0.00
  28       87.9289    0.00
  29       89.0645    0.00
  30       90.5211    0.00
  31       96.9053    0.00
  32       97.7176    0.00
 
 26. kpoint:  -0.3846154E+00  0.1538462E+00 -0.2410331E-16  0.1092399E-01
   1       -6.0803    1.00
   2       -2.0949    1.00
   3        4.4918    1.00
   4        6.4887    1.00
   5       17.5392    0.00
   6       19.3961    0.00
   7       20.6273    0.00
   8       25.0134    0.00
   9       29.2793    0.00
  10       32.8118    0.00
  11       34.1113    0.00
  12       38.3816    0.00
  13       46.9580    0.00
  14       47.7518    0.00
  15       52.3757    0.00
  16       57.6723    0.00
  17       62.9213    0.00
  18       65.3486    0.00
  19       65.9706    0.00
  20       66.2864    0.00
  21       69.4919    0.00
  22       70.5952    0.00
  23       73.1969    0.00
  24       78.4508    0.00
  25       78.9164    0.00
  26       79.9519    0.00
  27       83.9770    0.00
  28       88.5844    0.00
  29       89.2320    0.00
  30       90.8093    0.00
  31       96.6433    0.00
  32       98.1585    0.00
 
 27. kpoint:  -0.3076923E+00  0.1538462E+00  0.6810111E-17  0.1092399E-01
   1       -7.5641    1.00
   2        0.0540    1.00
   3        4.4342    1.00
   4        7.1218    1.00
   5       18.0069    0.00
   6       18.7640    0.00
   7       20.3519    0.00
   8       24.2462    0.00
   9       29.9253    0.00
  10       30.8949    0.00
  11       33.9813    0.00
  12       39.3353    0.00
  13       47.1293    0.00
  14       49.7217    0.00
  15       50.6173    0.00
  16       53.9503    0.00
  17       59.7621    0.00
  18       63.1330    0.00
  19       65.6150    0.00
  20       66.5294    0.00
  21       71.1860    0.00
  22       74.0811    0.00
  23       76.5611    0.00
  24       78.0806    0.00
  25       81.5735    0.00
  26       82.0311    0.00
  27       85.8383    0.00
  28       90.6939    0.00
  29       91.4686    0.00
  30       92.4783    0.00
  31       94.1422    0.00
  32       99.7088    0.00
 
 28. kpoint:  -0.2307692E+00  0.1538462E+00 -0.7344586E-17  0.1092399E-01
   1       -8.8580    1.00
   2        2.4353    1.00
   3        4.6590    1.00
   4        7.8653    1.00
   5       17.9277    0.00
   6       18.3298    0.00
   7       19.7074    0.00
   8       23.5529    0.00
   9       29.8604    0.00
  10       30.4363    0.00
  11       33.3979    0.00
  12       40.1414    0.00
  13       45.1130    0.00
  14       49.3749    0.00
  15       52.4710    0.00
  16       53.0629    0.00
  17       55.2771    0.00
  18       58.6702    0.00
  19       66.6044    0.00
  20       66.9926    0.00
  21       75.1412    0.00
  22       77.2624    0.00
  23       78.8378    0.00
  24       79.1157    0.00
  25       83.3097    0.00
  26       85.6676    0.00
  27       87.6970    0.00
  28       89.4870    0.00
  29       93.0509    0.00
  30       95.7483    0.00
  31       98.4257    0.00
  32       98.5134    0.00
 
 29. kpoint:  -0.1538462E+00  0.1538462E+00 -0.2757330E-17  0.5461994E-02
   1       -9.8672    1.00
   2        4.6081    1.00
   3        5.3960    1.00
   4        8.5680    1.00
   5       17.0152    0.00
   6       18.2622    0.00
   7       18.6208    0.00
   8       23.4683    0.00
   9       29.8734    0.00
  10       30.4202    0.00
  11       32.8227    0.00
  12       40.9797    0.00
  13       41.0867    0.00
  14       50.8978    0.00
  15       51.2035    0.00
  16       53.0868    0.00
  17       54.4422    0.00
  18       54.6379    0.00
  19       68.0477    0.00
  20       68.6273    0.00
  21       77.2362    0.00
  22       79.0899    0.00
  23       81.0312    0.00
  24       82.6792    0.00
  25       82.7983    0.00
  26       86.2336    0.00
  27       90.2177    0.00
  28       90.8763    0.00
  29       95.8724    0.00
  30       96.4107    0.00
  31       99.3288    0.00
  32      100.9817    0.00
 
 30. kpoint:   0.2307692E+00  0.2307692E+00 -0.1797929E-17  0.2730997E-02
   1       -9.6506    1.00
   2        5.8731    1.00
   3        5.9345    1.00
   4        5.9352    1.00
   5       14.2382   -0.00
   6       20.5402    0.00
   7       20.6587    0.00
   8       20.6603    0.00
   9       29.6284    0.00
  10       31.2845    0.00
  11       38.8479    0.00
  12       41.4348    0.00
  13       41.4354    0.00
  14       44.4539    0.00
  15       51.2338    0.00
  16       51.2367    0.00
  17       55.4763    0.00
  18       58.4733    0.00
  19       63.9640    0.00
  20       74.1401    0.00
  21       74.1450    0.00
  22       78.9047    0.00
  23       79.8915    0.00
  24       79.8970    0.00
  25       82.6939    0.00
  26       82.9763    0.00
  27       88.3406    0.00
  28       94.5636    0.00
  29       94.5672    0.00
  30      100.5630    0.00
  31      100.5637    0.00
  32      100.8586    0.00
 
 31. kpoint:   0.3076923E+00  0.2307692E+00 -0.4783720E-17  0.1092399E-01
   1       -8.8516    1.00
   2        3.9757    1.00
   3        5.3618    1.00
   4        5.5380    1.00
   5       14.4850   -0.00
   6       19.6092    0.00
   7       21.6270    0.00
   8       21.6487    0.00
   9       30.2332    0.00
  10       31.6918    0.00
  11       38.7535    0.00
  12       41.2560    0.00
  13       44.3115    0.00
  14       47.5320    0.00
  15       49.4045    0.00
  16       50.3507    0.00
  17       55.2655    0.00
  18       61.9072    0.00
  19       62.0526    0.00
  20       72.5355    0.00
  21       74.4582    0.00
  22       75.6776    0.00
  23       77.4568    0.00
  24       78.3937    0.00
  25       80.3262    0.00
  26       83.8683    0.00
  27       89.8062    0.00
  28       91.2625    0.00
  29       91.6812    0.00
  30       99.4018    0.00
  31      100.1638    0.00
  32      101.8778    0.00
 
 32. kpoint:   0.3846154E+00  0.2307692E+00 -0.1625876E-17  0.1092399E-01
   1       -7.7522    1.00
   2        1.8557    1.00
   3        4.7079    1.00
   4        5.0360    1.00
   5       15.2137   -0.00
   6       19.6312    0.00
   7       22.1256    0.00
   8       22.2130    0.00
   9       31.0437    0.00
  10       31.6835    0.00
  11       38.5695    0.00
  12       40.4149    0.00
  13       46.2775    0.00
  14       49.1663    0.00
  15       49.5059    0.00
  16       53.2232    0.00
  17       54.7250    0.00
  18       61.2440    0.00
  19       65.2013    0.00
  20       70.1788    0.00
  21       70.9740    0.00