 vasp.5.4.4.18Apr17-6-g9f103f2a35 (build Aug 01 2018 12:10:22) complex          
  
 executed on        TETRALITH-B01 date 2018.10.16  15:14:08
 running on   32 total cores
 distrk:  each k-point on   32 cores,    1 groups
 distr:  one band on NCORES_PER_BAND=   1 cores,   32 groups


--------------------------------------------------------------------------------------------------------


 INCAR:
 POTCAR:    PAW C 22Mar2012                       

 ----------------------------------------------------------------------------- 
|                                                                             |
|           W    W    AA    RRRRR   N    N  II  N    N   GGGG   !!!           |
|           W    W   A  A   R    R  NN   N  II  NN   N  G    G  !!!           |
|           W    W  A    A  R    R  N N  N  II  N N  N  G       !!!           |
|           W WW W  AAAAAA  RRRRR   N  N N  II  N  N N  G  GGG   !            |
|           WW  WW  A    A  R   R   N   NN  II  N   NN  G    G                |
|           W    W  A    A  R    R  N    N  II  N    N   GGGG   !!!           |
|                                                                             |
|      For optimal performance we recommend to set                            |
|        NCORE= 4 - approx SQRT( number of cores)                             |
|      NCORE specifies how many cores store one orbital (NPAR=cpu/NCORE).     |
|      This setting can  greatly improve the performance of VASP for DFT.     |
|      The default,   NCORE=1            might be grossly inefficient         |
|      on modern multi-core architectures or massively parallel machines.     |
|      Do your own testing !!!!                                               |
|      Unfortunately you need to use the default for GW and RPA calculations. |
|      (for HF NCORE is supported but not extensively tested yet)             |
|                                                                             |
 ----------------------------------------------------------------------------- 

 POTCAR:    PAW C 22Mar2012                       
   VRHFIN =C: s2p2                                                              
   LEXCH  = CA                                                                  
   EATOM  =   146.6860 eV,   10.7811 Ry                                         
                                                                                
   TITEL  = PAW C 22Mar2012                                                     
   LULTRA =        F    use ultrasoft PP ?                                      
   IUNSCR =        1    unscreen: 0-lin 1-nonlin 2-no                           
   RPACOR =    1.200    partial core radius                                     
   POMASS =   12.011; ZVAL   =    4.000    mass and valenz                      
   RCORE  =    1.500    outmost cutoff radius                                   
   RWIGS  =    1.630; RWIGS  =    0.863    wigner-seitz radius (au A)           
   ENMAX  =  400.000; ENMIN  =  300.000 eV                                      
   ICORE  =        2    local potential                                         
   LCOR   =        T    correct aug charges                                     
   LPAW   =        T    paw PP                                                  
   EAUG   =  644.873                                                            
   DEXC   =    0.000                                                            
   RMAX   =    1.529    core radius for proj-oper                               
   RAUG   =    1.300    factor for augmentation sphere                          
   RDEP   =    1.501    radius for radial grids                                 
   RDEPT  =    1.300    core radius for aug-charge                              
                                                                                
   Atomic configuration                                                         
    4 entries                                                                   
     n  l   j            E        occ.                                          
     1  0  0.50      -270.6511   2.0000                                         
     2  0  0.50       -13.6383   2.0000                                         
     2  1  0.50        -5.4212   2.0000                                         
     3  2  1.50        -5.4423   0.0000                                         
   Description                                                                  
     l       E           TYP  RCUT    TYP  RCUT                                 
     0    -13.6382841     23  1.200                                             
     0     -7.9195854     23  1.200                                             
     1     -5.4211532     23  1.500                                             
     1     34.0145650     23  1.500                                             
     2     -5.4423304      7  1.500                                             
  local pseudopotential read in
  partial core-charges read in
  partial kinetic energy density read in
  kinetic energy density of atom read in
  atomic valenz-charges read in
  non local Contribution for L=           0  read in
    real space projection operators read in
  non local Contribution for L=           0  read in
    real space projection operators read in
  non local Contribution for L=           1  read in
    real space projection operators read in
  non local Contribution for L=           1  read in
    real space projection operators read in
    PAW grid and wavefunctions read in
 
   number of l-projection  operators is LMAX  =           4
   number of lm-projection operators is LMMAX =           8
 
  PAW C 22Mar2012                       :
 energy of atom  1       EATOM= -146.6860
 kinetic energy error for atom=    0.0289 (will be added to EATOM!!)
 
 
 POSCAR: cubic diamond    comment line           
  positions in direct lattice
  No initial velocities read in
 exchange correlation table for  LEXCH =        2
   RHO(1)=    0.500       N(1)  =     2000
   RHO(2)=  100.500       N(2)  =     4000
 


--------------------------------------------------------------------------------------------------------


 ion  position               nearest neighbor table
   1  0.000  0.000  0.000-   2 1.54   2 1.54   2 1.54   2 1.54
   2  0.250  0.250  0.250-   1 1.54   1 1.54   1 1.54   1 1.54
 
  LATTYP: Found a face centered cubic cell.
 ALAT       =     3.5670000000
  
  Lattice vectors:
  
 A1 = (   1.7835000000,   1.7835000000,   0.0000000000)
 A2 = (   0.0000000000,   1.7835000000,   1.7835000000)
 A3 = (   1.7835000000,   0.0000000000,   1.7835000000)


Analysis of symmetry for initial positions (statically):
=====================================================================
 Subroutine PRICEL returns:
 Original cell was already a primitive cell.
 

 Routine SETGRP: Setting up the symmetry group for a 
 face centered cubic supercell.


 Subroutine GETGRP returns: Found 48 space group operations
 (whereof 24 operations were pure point group operations)
 out of a pool of 48 trial point group operations.


The static configuration has the point symmetry T_d .
 The point group associated with its full space group is O_h .


Analysis of symmetry for dynamics (positions and initial velocities):
=====================================================================
 Subroutine PRICEL returns:
 Original cell was already a primitive cell.
 

 Routine SETGRP: Setting up the symmetry group for a 
 face centered cubic supercell.


 Subroutine GETGRP returns: Found 48 space group operations
 (whereof 24 operations were pure point group operations)
 out of a pool of 48 trial point group operations.


The dynamic configuration has the point symmetry T_d .
 The point group associated with its full space group is O_h .


 Subroutine INISYM returns: Found 48 space group operations
 (whereof 24 operations are pure point group operations),
 and found     1 'primitive' translations

 
 
 KPOINTS: 13x13x13            Comment             

Automatic generation of k-mesh.
Space group operators:
 irot       det(A)        alpha          n_x          n_y          n_z        tau_x        tau_y        tau_z
    1     1.000000     0.000000     1.000000     0.000000     0.000000     0.000000     0.000000     0.000000
    2     1.000000   120.000000    -0.577350    -0.577350    -0.577350     0.000000     0.000000     0.000000
    3     1.000000   120.000000     0.577350     0.577350     0.577350     0.000000     0.000000     0.000000
    4    -1.000000    90.000000     0.000000    -1.000000     0.000000     0.000000     0.000000     0.000000
    5    -1.000000   180.000000     0.707107     0.707107     0.000000     0.000000     0.000000     0.000000
    6    -1.000000    90.000000     1.000000     0.000000     0.000000     0.000000     0.000000     0.000000
    7     1.000000   180.000000     0.000000    -1.000000    -0.000000     0.000000     0.000000     0.000000
    8     1.000000   120.000000     0.577350     0.577350    -0.577350     0.000000     0.000000     0.000000
    9     1.000000   120.000000     0.577350    -0.577350    -0.577350     0.000000     0.000000     0.000000
   10    -1.000000    90.000000     0.000000     1.000000     0.000000     0.000000     0.000000     0.000000
   11    -1.000000    90.000000    -0.000000    -0.000000    -1.000000     0.000000     0.000000     0.000000
   12    -1.000000   180.000000    -0.000000     0.707107     0.707107     0.000000     0.000000     0.000000
   13     1.000000   120.000000    -0.577350     0.577350     0.577350     0.000000     0.000000     0.000000
   14     1.000000   120.000000    -0.577350     0.577350    -0.577350     0.000000     0.000000     0.000000
   15     1.000000   180.000000    -0.000000     0.000000     1.000000     0.000000     0.000000     0.000000
   16    -1.000000    90.000000    -1.000000     0.000000     0.000000     0.000000     0.000000     0.000000
   17    -1.000000   180.000000     0.707107     0.000000     0.707107     0.000000     0.000000     0.000000
   18    -1.000000    90.000000     0.000000    -0.000000     1.000000     0.000000     0.000000     0.000000
   19     1.000000   120.000000    -0.577350    -0.577350     0.577350     0.000000     0.000000     0.000000
   20     1.000000   180.000000     1.000000     0.000000     0.000000     0.000000     0.000000     0.000000
   21     1.000000   120.000000     0.577350    -0.577350     0.577350     0.000000     0.000000     0.000000
   22    -1.000000   180.000000     0.707107    -0.707107    -0.000000     0.000000     0.000000     0.000000
   23    -1.000000   180.000000     0.707107     0.000000    -0.707107     0.000000     0.000000     0.000000
   24    -1.000000   180.000000    -0.000000    -0.707107     0.707107     0.000000     0.000000     0.000000
   25    -1.000000     0.000000     1.000000     0.000000     0.000000     0.250000     0.250000     0.250000
   26    -1.000000   120.000000    -0.577350    -0.577350    -0.577350     0.250000     0.250000     0.250000
   27    -1.000000   120.000000     0.577350     0.577350     0.577350     0.250000     0.250000     0.250000
   28     1.000000    90.000000     0.000000    -1.000000     0.000000     0.250000     0.250000     0.250000
   29     1.000000   180.000000     0.707107     0.707107     0.000000     0.250000     0.250000     0.250000
   30     1.000000    90.000000     1.000000     0.000000     0.000000     0.250000     0.250000     0.250000
   31    -1.000000   180.000000     0.000000    -1.000000    -0.000000     0.250000     0.250000     0.250000
   32    -1.000000   120.000000     0.577350     0.577350    -0.577350     0.250000     0.250000     0.250000
   33    -1.000000   120.000000     0.577350    -0.577350    -0.577350     0.250000     0.250000     0.250000
   34     1.000000    90.000000     0.000000     1.000000     0.000000     0.250000     0.250000     0.250000
   35     1.000000    90.000000    -0.000000    -0.000000    -1.000000     0.250000     0.250000     0.250000
   36     1.000000   180.000000    -0.000000     0.707107     0.707107     0.250000     0.250000     0.250000
   37    -1.000000   120.000000    -0.577350     0.577350     0.577350     0.250000     0.250000     0.250000
   38    -1.000000   120.000000    -0.577350     0.577350    -0.577350     0.250000     0.250000     0.250000
   39    -1.000000   180.000000    -0.000000     0.000000     1.000000     0.250000     0.250000     0.250000
   40     1.000000    90.000000    -1.000000     0.000000     0.000000     0.250000     0.250000     0.250000
   41     1.000000   180.000000     0.707107     0.000000     0.707107     0.250000     0.250000     0.250000
   42     1.000000    90.000000     0.000000    -0.000000     1.000000     0.250000     0.250000     0.250000
   43    -1.000000   120.000000    -0.577350    -0.577350     0.577350     0.250000     0.250000     0.250000
   44    -1.000000   180.000000     1.000000     0.000000     0.000000     0.250000     0.250000     0.250000
   45    -1.000000   120.000000     0.577350    -0.577350     0.577350     0.250000     0.250000     0.250000
   46     1.000000   180.000000     0.707107    -0.707107    -0.000000     0.250000     0.250000     0.250000
   47     1.000000   180.000000     0.707107     0.000000    -0.707107     0.250000     0.250000     0.250000
   48     1.000000   180.000000    -0.000000    -0.707107     0.707107     0.250000     0.250000     0.250000
 
 Subroutine IBZKPT returns following result:
 ===========================================
 
 Found     84 irreducible k-points:
 
 Following reciprocal coordinates:
            Coordinates               Weight
  0.000000  0.000000  0.000000      1.000000
  0.076923  0.000000  0.000000      8.000000
  0.153846  0.000000  0.000000      8.000000
  0.230769 -0.000000 -0.000000      8.000000
  0.307692  0.000000  0.000000      8.000000
  0.384615  0.000000  0.000000      8.000000
  0.461538 -0.000000 -0.000000      8.000000
  0.076923  0.076923 -0.000000      6.000000
  0.153846  0.076923 -0.000000     24.000000
  0.230769  0.076923 -0.000000     24.000000
  0.307692  0.076923 -0.000000     24.000000
  0.384615  0.076923  0.000000     24.000000
  0.461538  0.076923  0.000000     24.000000
 -0.461538  0.076923 -0.000000     24.000000
 -0.384615  0.076923  0.000000     24.000000
 -0.307692  0.076923 -0.000000     24.000000
 -0.230769  0.076923 -0.000000     24.000000
 -0.153846  0.076923  0.000000     24.000000
 -0.076923  0.076923 -0.000000     12.000000
  0.153846  0.153846 -0.000000      6.000000
  0.230769  0.153846  0.000000     24.000000
  0.307692  0.153846  0.000000     24.000000
  0.384615  0.153846 -0.000000     24.000000
  0.461538  0.153846  0.000000     24.000000
 -0.461538  0.153846 -0.000000     24.000000
 -0.384615  0.153846 -0.000000     24.000000
 -0.307692  0.153846  0.000000     24.000000
 -0.230769  0.153846 -0.000000     24.000000
 -0.153846  0.153846 -0.000000     12.000000
  0.230769  0.230769 -0.000000      6.000000
  0.307692  0.230769 -0.000000     24.000000
  0.384615  0.230769 -0.000000     24.000000
  0.461538  0.230769  0.000000     24.000000
 -0.461538  0.230769  0.000000     24.000000
 -0.384615  0.230769 -0.000000     24.000000
 -0.307692  0.230769 -0.000000     24.000000
 -0.230769  0.230769  0.000000     12.000000
  0.307692  0.307692 -0.000000      6.000000
  0.384615  0.307692 -0.000000     24.000000
  0.461538  0.307692 -0.000000     24.000000
 -0.461538  0.307692 -0.000000     24.000000
 -0.384615  0.307692  0.000000     24.000000
 -0.307692  0.307692 -0.000000     12.000000
  0.384615  0.384615 -0.000000      6.000000
  0.461538  0.384615 -0.000000     24.000000
 -0.461538  0.384615 -0.000000     24.000000
 -0.384615  0.384615 -0.000000     12.000000
  0.461538  0.461538 -0.000000      6.000000
 -0.461538  0.461538  0.000000     12.000000
  0.230769  0.153846  0.076923     24.000000
  0.307692  0.153846  0.076923     48.000000
  0.384615  0.153846  0.076923     48.000000
  0.461538  0.153846  0.076923     48.000000
 -0.461538  0.153846  0.076923     48.000000
  0.307692  0.230769  0.076923     24.000000
  0.384615  0.230769  0.076923     48.000000
  0.461538  0.230769  0.076923     48.000000
 -0.461538  0.230769  0.076923     48.000000
 -0.384615  0.230769  0.076923     48.000000
 -0.307692  0.230769  0.076923     48.000000
 -0.230769  0.230769  0.076923     48.000000
 -0.153846  0.230769  0.076923     24.000000
  0.384615  0.307692  0.076923     24.000000
  0.461538  0.307692  0.076923     48.000000
 -0.461538  0.307692  0.076923     48.000000
 -0.384615  0.307692  0.076923     48.000000
 -0.307692  0.307692  0.076923     48.000000
 -0.230769  0.307692  0.076923     24.000000
  0.461538  0.384615  0.076923     24.000000
 -0.461538  0.384615  0.076923     48.000000
 -0.384615  0.384615  0.076923     48.000000
 -0.307692  0.384615  0.076923     24.000000
 -0.461538  0.461538  0.076923     24.000000
 -0.384615  0.461538  0.076923     24.000000
  0.461538  0.307692  0.153846     24.000000
 -0.461538  0.307692  0.153846     48.000000
 -0.384615  0.307692  0.153846     48.000000
 -0.461538  0.384615  0.153846     24.000000
 -0.384615  0.384615  0.153846     48.000000
 -0.307692  0.384615  0.153846     48.000000
 -0.230769  0.384615  0.153846     24.000000
 -0.384615  0.461538  0.153846     24.000000
 -0.307692  0.461538  0.153846     24.000000
 -0.307692  0.461538  0.230769     24.000000
 
 Following cartesian coordinates:
            Coordinates               Weight
  0.000000  0.000000  0.000000      1.000000
  0.076923  0.076923 -0.076923      8.000000
  0.153846  0.153846 -0.153846      8.000000
  0.230769  0.230769 -0.230769      8.000000
  0.307692  0.307692 -0.307692      8.000000
  0.384615  0.384615 -0.384615      8.000000
  0.461538  0.461538 -0.461538      8.000000
  0.000000  0.153846 -0.000000      6.000000
  0.076923  0.230769 -0.076923     24.000000
  0.153846  0.307692 -0.153846     24.000000
  0.230769  0.384615 -0.230769     24.000000
  0.307692  0.461538 -0.307692     24.000000
  0.384615  0.538462 -0.384615     24.000000
 -0.538462 -0.384615  0.538462     24.000000
 -0.461538 -0.307692  0.461538     24.000000
 -0.384615 -0.230769  0.384615     24.000000
 -0.307692 -0.153846  0.307692     24.000000
 -0.230769 -0.076923  0.230769     24.000000
 -0.153846 -0.000000  0.153846     12.000000
 -0.000000  0.307692  0.000000      6.000000
  0.076923  0.384615 -0.076923     24.000000
  0.153846  0.461538 -0.153846     24.000000
  0.230769  0.538462 -0.230769     24.000000
  0.307692  0.615385 -0.307692     24.000000
 -0.615385 -0.307692  0.615385     24.000000
 -0.538462 -0.230769  0.538462     24.000000
 -0.461538 -0.153846  0.461538     24.000000
 -0.384615 -0.076923  0.384615     24.000000
 -0.307692  0.000000  0.307692     12.000000
 -0.000000  0.461538  0.000000      6.000000
  0.076923  0.538462 -0.076923     24.000000
  0.153846  0.615385 -0.153846     24.000000
  0.230769  0.692308 -0.230769     24.000000
 -0.692308 -0.230769  0.692308     24.000000
 -0.615385 -0.153846  0.615385     24.000000
 -0.538462 -0.076923  0.538462     24.000000
 -0.461538  0.000000  0.461538     12.000000
  0.000000  0.615385 -0.000000      6.000000
  0.076923  0.692308 -0.076923     24.000000
  0.153846  0.769231 -0.153846     24.000000
 -0.769231 -0.153846  0.769231     24.000000
 -0.692308 -0.076923  0.692308     24.000000
 -0.615385 -0.000000  0.615385     12.000000
 -0.000000  0.769231  0.000000      6.000000
  0.076923  0.846154 -0.076923     24.000000
 -0.846154 -0.076923  0.846154     24.000000
 -0.769231  0.000000  0.769231     12.000000
 -0.000000  0.923077  0.000000      6.000000
 -0.923077  0.000000  0.923077     12.000000
  0.153846  0.307692  0.000000     24.000000
  0.230769  0.384615 -0.076923     48.000000
  0.307692  0.461538 -0.153846     48.000000
  0.384615  0.538462 -0.230769     48.000000
 -0.538462 -0.384615  0.692308     48.000000
  0.153846  0.461538 -0.000000     24.000000
  0.230769  0.538462 -0.076923     48.000000
  0.307692  0.615385 -0.153846     48.000000
 -0.615385 -0.307692  0.769231     48.000000
 -0.538462 -0.230769  0.692308     48.000000
 -0.461538 -0.153846  0.615385     48.000000
 -0.384615 -0.076923  0.538462     48.000000
 -0.307692  0.000000  0.461538     24.000000
  0.153846  0.615385 -0.000000     24.000000
  0.230769  0.692308 -0.076923     48.000000
 -0.692308 -0.230769  0.846154     48.000000
 -0.615385 -0.153846  0.769231     48.000000
 -0.538462 -0.076923  0.692308     48.000000
 -0.461538  0.000000  0.615385     24.000000
  0.153846  0.769231 -0.000000     24.000000
 -0.769231 -0.153846  0.923077     48.000000
 -0.692308 -0.076923  0.846154     48.000000
 -0.615385  0.000000  0.769231     24.000000
 -0.846154 -0.076923  1.000000     24.000000
 -0.769231  0.000000  0.923077     24.000000
  0.307692  0.615385 -0.000000     24.000000
 -0.615385 -0.307692  0.923077     48.000000
 -0.538462 -0.230769  0.846154     48.000000
 -0.692308 -0.230769  1.000000     24.000000
 -0.615385 -0.153846  0.923077     48.000000
 -0.538462 -0.076923  0.846154     48.000000
 -0.461538  0.000000  0.769231     24.000000
 -0.692308 -0.076923  1.000000     24.000000
 -0.615385  0.000000  0.923077     24.000000
 -0.538462 -0.076923  1.000000     24.000000
 


--------------------------------------------------------------------------------------------------------




 Dimension of arrays:
   k-points           NKPTS =     84   k-points in BZ     NKDIM =     84   number of bands    NBANDS=     32
   number of dos      NEDOS =    301   number of ions     NIONS =      2
   non local maximal  LDIM  =      4   non local SUM 2l+1 LMDIM =      8
   total plane-waves  NPLWV =   1728
   max r-space proj   IRMAX =      1   max aug-charges    IRDMAX=   1997
   dimension x,y,z NGX =    12 NGY =   12 NGZ =   12
   dimension x,y,z NGXF=    24 NGYF=   24 NGZF=   24
   support grid    NGXF=    24 NGYF=   24 NGZF=   24
   ions per type =               2
   NGX,Y,Z   is equivalent  to a cutoff of   7.91,  7.91,  7.91 a.u.
   NGXF,Y,Z  is equivalent  to a cutoff of  15.82, 15.82, 15.82 a.u.

 SYSTEM =  unknown system                          
 POSCAR =  cubic diamond    comment line           

 Startparameter for this run:
   NWRITE =      2    write-flag & timer
   PREC   = normal    normal or accurate (medium, high low for compatibility)
   ISTART =      1    job   : 0-new  1-cont  2-samecut
   ICHARG =      0    charge: 1-file 2-atom 10-const
   ISPIN  =      1    spin polarized calculation?
   LNONCOLLINEAR =      F non collinear calculations
   LSORBIT =      F    spin-orbit coupling
   INIWAV =      1    electr: 0-lowe 1-rand  2-diag
   LASPH  =      F    aspherical Exc in radial PAW
   METAGGA=      F    non-selfconsistent MetaGGA calc.

 Electronic Relaxation 1
   ENCUT  =  400.0 eV  29.40 Ry    5.42 a.u.   4.11  4.11  4.11*2*pi/ulx,y,z
   ENINI  =  400.0     initial cutoff
   ENAUG  =  644.9 eV  augmentation charge cutoff
   NELM   =     60;   NELMIN=  2; NELMDL=  0     # of ELM steps 
   EDIFF  = 0.1E-03   stopping-criterion for ELM
   LREAL  =      F    real-space projection
   NLSPLINE    = F    spline interpolate recip. space projectors
   LCOMPAT=      F    compatible to vasp.4.4
   GGA_COMPAT  = T    GGA compatible to vasp.4.4-vasp.4.6
   LMAXPAW     = -100 max onsite density
   LMAXMIX     =    2 max onsite mixed and CHGCAR
   VOSKOWN=      0    Vosko Wilk Nusair interpolation
   ROPT   =    0.00000
 Ionic relaxation
   EDIFFG = 0.1E-02   stopping-criterion for IOM
   NSW    =      0    number of steps for IOM
   NBLOCK =      1;   KBLOCK =      1    inner block; outer block 
   IBRION =     -1    ionic relax: 0-MD 1-quasi-New 2-CG
   NFREE  =      0    steps in history (QN), initial steepest desc. (CG)
   ISIF   =      2    stress and relaxation
   IWAVPR =     10    prediction:  0-non 1-charg 2-wave 3-comb
   ISYM   =      2    0-nonsym 1-usesym 2-fastsym
   LCORR  =      T    Harris-Foulkes like correction to forces

   POTIM  = 0.5000    time-step for ionic-motion
   TEIN   =    0.0    initial temperature
   TEBEG  =    0.0;   TEEND  =   0.0 temperature during run
   SMASS  =  -3.00    Nose mass-parameter (am)
   estimated Nose-frequenzy (Omega)   =  0.10E-29 period in steps =****** mass=  -0.145E-27a.u.
   SCALEE = 1.0000    scale energy and forces
   NPACO  =    256;   APACO  = 16.0  distance and # of slots for P.C.
   PSTRESS=    0.0 pullay stress

  Mass of Ions in am
   POMASS =  12.01
  Ionic Valenz
   ZVAL   =   4.00
  Atomic Wigner-Seitz radii
   RWIGS  =  -1.00
  virtual crystal weights 
   VCA    =   1.00
   NELECT =       8.0000    total number of electrons
   NUPDOWN=      -1.0000    fix difference up-down

 DOS related values:
   EMIN   =  10.00;   EMAX   =-10.00  energy-range for DOS
   EFERMI =   0.00
   ISMEAR =     1;   SIGMA  =   0.20  broadening in eV -4-tet -1-fermi 0-gaus

 Electronic relaxation 2 (details)
   IALGO  =     38    algorithm
   LDIAG  =      T    sub-space diagonalisation (order eigenvalues)
   LSUBROT=      F    optimize rotation matrix (better conditioning)
   TURBO    =      0    0=normal 1=particle mesh
   IRESTART =      0    0=no restart 2=restart with 2 vectors
   NREBOOT  =      0    no. of reboots
   NMIN     =      0    reboot dimension
   EREF     =   0.00    reference energy to select bands
   IMIX   =      4    mixing-type and parameters
     AMIX     =   0.40;   BMIX     =  1.00
     AMIX_MAG =   1.60;   BMIX_MAG =  1.00
     AMIN     =   0.10
     WC   =   100.;   INIMIX=   1;  MIXPRE=   1;  MAXMIX= -45

 Intra band minimization:
   WEIMIN = 0.0000     energy-eigenvalue tresh-hold
   EBREAK =  0.78E-06  absolut break condition
   DEPER  =   0.30     relativ break condition  

   TIME   =   0.40     timestep for ELM

  volume/ion in A,a.u.               =       5.67        38.28
  Fermi-wavevector in a.u.,A,eV,Ry     =   1.457097  2.753514 28.886949  2.123131
  Thomas-Fermi vector in A             =   2.573938
 
 Write flags
   LWAVE        =      F    write WAVECAR
   LDOWNSAMPLE  =      F    k-point downsampling of WAVECAR
   LCHARG       =      T    write CHGCAR
   LVTOT        =      F    write LOCPOT, total local potential
   LVHAR        =      F    write LOCPOT, Hartree potential only
   LELF         =      F    write electronic localiz. function (ELF)
   LORBIT       =      0    0 simple, 1 ext, 2 COOP (PROOUT), +10 PAW based schemes


 Dipole corrections
   LMONO  =      F    monopole corrections only (constant potential shift)
   LDIPOL =      F    correct potential (dipole corrections)
   IDIPOL =      0    1-x, 2-y, 3-z, 4-all directions 
   EPSILON=  1.0000000 bulk dielectric constant

 Exchange correlation treatment:
   GGA     =    --    GGA type
   LEXCH   =     2    internal setting for exchange type
   VOSKOWN=      0    Vosko Wilk Nusair interpolation
   LHFCALC =     F    Hartree Fock is set to
   LHFONE  =     F    Hartree Fock one center treatment
   AEXX    =    0.0000 exact exchange contribution

 Linear response parameters
   LEPSILON=     F    determine dielectric tensor
   LRPA    =     F    only Hartree local field effects (RPA)
   LNABLA  =     F    use nabla operator in PAW spheres
   LVEL    =     F    velocity operator in full k-point grid
   LINTERFAST=   F  fast interpolation
   KINTER  =     0    interpolate to denser k-point grid
   CSHIFT  =0.1000    complex shift for real part using Kramers Kronig
   OMEGAMAX=  -1.0    maximum frequency
   DEG_THRESHOLD= 0.2000000E-02 threshold for treating states as degnerate
   RTIME   =   -0.100 relaxation time in fs
  (WPLASMAI=    0.000 imaginary part of plasma frequency in eV, 0.658/RTIME)
   DFIELD  = 0.0000000 0.0000000 0.0000000 field for delta impulse in time
 
 Orbital magnetization related:
   ORBITALMAG=     F  switch on orbital magnetization
   LCHIMAG   =     F  perturbation theory with respect to B field
   DQ        =  0.001000  dq finite difference perturbation B field
   LLRAUG    =     F  two centre corrections for induced B field



--------------------------------------------------------------------------------------------------------


 Static calculation
 charge density and potential will be updated during run
 non-spin polarized calculation
 Variant of blocked Davidson
 Davidson routine will perform the subspace rotation
 perform sub-space diagonalisation
    after iterative eigenvector-optimisation
 modified Broyden-mixing scheme, WC =      100.0
 initial mixing is a Kerker type mixing with AMIX =  0.4000 and BMIX =      1.0000
 Hartree-type preconditioning will be used
 using additional bands           28
 reciprocal scheme for non local part
 use partial core corrections
 calculate Harris-corrections to forces 
   (improved forces if not selfconsistent)
 use of overlap-Matrix (Vanderbilt PP)
 Methfessel and Paxton  Order N= 1 SIGMA  =   0.20


--------------------------------------------------------------------------------------------------------


  energy-cutoff  :      400.00
  volume of cell :       11.35
      direct lattice vectors                 reciprocal lattice vectors
     1.783500000  1.783500000  0.000000000     0.280347631  0.280347631 -0.280347631
     0.000000000  1.783500000  1.783500000    -0.280347631  0.280347631  0.280347631
     1.783500000  0.000000000  1.783500000     0.280347631 -0.280347631  0.280347631

  length of vectors
     2.522249888  2.522249888  2.522249888     0.485576341  0.485576341  0.485576341


 
 old parameters found on file WAVECAR:
  energy-cutoff  :      400.00
  volume of cell :       11.35
      direct lattice vectors                 reciprocal lattice vectors
     1.783500000  1.783500000  0.000000000     0.280347631  0.280347631 -0.280347631
     0.000000000  1.783500000  1.783500000    -0.280347631  0.280347631  0.280347631
     1.783500000  0.000000000  1.783500000     0.280347631 -0.280347631  0.280347631

  length of vectors

 
 k-points in units of 2pi/SCALE and weight: 13x13x13            Comment             
   0.00000000  0.00000000  0.00000000       0.000
   0.07692308  0.07692308 -0.07692308       0.004
   0.15384615  0.15384615 -0.15384615       0.004
   0.23076923  0.23076923 -0.23076923       0.004
   0.30769231  0.30769231 -0.30769231       0.004
   0.38461538  0.38461538 -0.38461538       0.004
   0.46153846  0.46153846 -0.46153846       0.004
  -0.00000000  0.15384615  0.00000000       0.003
   0.07692308  0.23076923 -0.07692308       0.011
   0.15384615  0.30769231 -0.15384615       0.011
   0.23076923  0.38461538 -0.23076923       0.011
   0.30769231  0.46153846 -0.30769231       0.011
   0.38461538  0.53846154 -0.38461538       0.011
  -0.53846154 -0.38461538  0.53846154       0.011
  -0.46153846 -0.30769231  0.46153846       0.011
  -0.38461538 -0.23076923  0.38461538       0.011
  -0.30769231 -0.15384615  0.30769231       0.011
  -0.23076923 -0.07692308  0.23076923       0.011
  -0.15384615  0.00000000  0.15384615       0.005
  -0.00000000  0.30769231  0.00000000       0.003
   0.07692308  0.38461538 -0.07692308       0.011
   0.15384615  0.46153846 -0.15384615       0.011
   0.23076923  0.53846154 -0.23076923       0.011
   0.30769231  0.61538462 -0.30769231       0.011
  -0.61538462 -0.30769231  0.61538462       0.011
  -0.53846154 -0.23076923  0.53846154       0.011
  -0.46153846 -0.15384615  0.46153846       0.011
  -0.38461538 -0.07692308  0.38461538       0.011
  -0.30769231  0.00000000  0.30769231       0.005
  -0.00000000  0.46153846  0.00000000       0.003
   0.07692308  0.53846154 -0.07692308       0.011
   0.15384615  0.61538462 -0.15384615       0.011
   0.23076923  0.69230769 -0.23076923       0.011
  -0.69230769 -0.23076923  0.69230769       0.011
  -0.61538462 -0.15384615  0.61538462       0.011
  -0.53846154 -0.07692308  0.53846154       0.011
  -0.46153846  0.00000000  0.46153846       0.005
  -0.00000000  0.61538462  0.00000000       0.003
   0.07692308  0.69230769 -0.07692308       0.011
   0.15384615  0.76923077 -0.15384615       0.011
  -0.76923077 -0.15384615  0.76923077       0.011
  -0.69230769 -0.07692308  0.69230769       0.011
  -0.61538462  0.00000000  0.61538462       0.005
   0.00000000  0.76923077 -0.00000000       0.003
   0.07692308  0.84615385 -0.07692308       0.011
  -0.84615385 -0.07692308  0.84615385       0.011
  -0.76923077  0.00000000  0.76923077       0.005
  -0.00000000  0.92307692  0.00000000       0.003
  -0.92307692  0.00000000  0.92307692       0.005
   0.15384615  0.30769231 -0.00000000       0.011
   0.23076923  0.38461538 -0.07692308       0.022
   0.30769231  0.46153846 -0.15384615       0.022
   0.38461538  0.53846154 -0.23076923       0.022
  -0.53846154 -0.38461538  0.69230769       0.022
   0.15384615  0.46153846  0.00000000       0.011
   0.23076923  0.53846154 -0.07692308       0.022
   0.30769231  0.61538462 -0.15384615       0.022
  -0.61538462 -0.30769231  0.76923077       0.022
  -0.53846154 -0.23076923  0.69230769       0.022
  -0.46153846 -0.15384615  0.61538462       0.022
  -0.38461538 -0.07692308  0.53846154       0.022
  -0.30769231  0.00000000  0.46153846       0.011
   0.15384615  0.61538462 -0.00000000       0.011
   0.23076923  0.69230769 -0.07692308       0.022
  -0.69230769 -0.23076923  0.84615385       0.022
  -0.61538462 -0.15384615  0.76923077       0.022
  -0.53846154 -0.07692308  0.69230769       0.022
  -0.46153846  0.00000000  0.61538462       0.011
   0.15384615  0.76923077 -0.00000000       0.011
  -0.76923077 -0.15384615  0.92307692       0.022
  -0.69230769 -0.07692308  0.84615385       0.022
  -0.61538462  0.00000000  0.76923077       0.011
  -0.84615385 -0.07692308  1.00000000       0.011
  -0.76923077  0.00000000  0.92307692       0.011
   0.30769231  0.61538462 -0.00000000       0.011
  -0.61538462 -0.30769231  0.92307692       0.022
  -0.53846154 -0.23076923  0.84615385       0.022
  -0.69230769 -0.23076923  1.00000000       0.011
  -0.61538462 -0.15384615  0.92307692       0.022
  -0.53846154 -0.07692308  0.84615385       0.022
  -0.46153846  0.00000000  0.76923077       0.011
  -0.69230769 -0.07692308  1.00000000       0.011
  -0.61538462  0.00000000  0.92307692       0.011
  -0.53846154 -0.07692308  1.00000000       0.011
 
 k-points in reciprocal lattice and weights: 13x13x13            Comment             
   0.00000000  0.00000000  0.00000000       0.000
   0.07692308  0.00000000  0.00000000       0.004
   0.15384615  0.00000000  0.00000000       0.004
   0.23076923 -0.00000000 -0.00000000       0.004
   0.30769231  0.00000000  0.00000000       0.004
   0.38461538  0.00000000  0.00000000       0.004
   0.46153846 -0.00000000 -0.00000000       0.004
   0.07692308  0.07692308 -0.00000000       0.003
   0.15384615  0.07692308 -0.00000000       0.011
   0.23076923  0.07692308 -0.00000000       0.011
   0.30769231  0.07692308 -0.00000000       0.011
   0.38461538  0.07692308  0.00000000       0.011
   0.46153846  0.07692308  0.00000000       0.011
  -0.46153846  0.07692308 -0.00000000       0.011
  -0.38461538  0.07692308  0.00000000       0.011
  -0.30769231  0.07692308 -0.00000000       0.011
  -0.23076923  0.07692308 -0.00000000       0.011
  -0.15384615  0.07692308  0.00000000       0.011
  -0.07692308  0.07692308 -0.00000000       0.005
   0.15384615  0.15384615 -0.00000000       0.003
   0.23076923  0.15384615  0.00000000       0.011
   0.30769231  0.15384615  0.00000000       0.011
   0.38461538  0.15384615 -0.00000000       0.011
   0.46153846  0.15384615  0.00000000       0.011
  -0.46153846  0.15384615 -0.00000000       0.011
  -0.38461538  0.15384615 -0.00000000       0.011
  -0.30769231  0.15384615  0.00000000       0.011
  -0.23076923  0.15384615 -0.00000000       0.011
  -0.15384615  0.15384615 -0.00000000       0.005
   0.23076923  0.23076923 -0.00000000       0.003
   0.30769231  0.23076923 -0.00000000       0.011
   0.38461538  0.23076923 -0.00000000       0.011
   0.46153846  0.23076923  0.00000000       0.011
  -0.46153846  0.23076923  0.00000000       0.011
  -0.38461538  0.23076923 -0.00000000       0.011
  -0.30769231  0.23076923 -0.00000000       0.011
  -0.23076923  0.23076923  0.00000000       0.005
   0.30769231  0.30769231 -0.00000000       0.003
   0.38461538  0.30769231 -0.00000000       0.011
   0.46153846  0.30769231 -0.00000000       0.011
  -0.46153846  0.30769231 -0.00000000       0.011
  -0.38461538  0.30769231  0.00000000       0.011
  -0.30769231  0.30769231 -0.00000000       0.005
   0.38461538  0.38461538 -0.00000000       0.003
   0.46153846  0.38461538 -0.00000000       0.011
  -0.46153846  0.38461538 -0.00000000       0.011
  -0.38461538  0.38461538 -0.00000000       0.005
   0.46153846  0.46153846 -0.00000000       0.003
  -0.46153846  0.46153846  0.00000000       0.005
   0.23076923  0.15384615  0.07692308       0.011
   0.30769231  0.15384615  0.07692308       0.022
   0.38461538  0.15384615  0.07692308       0.022
   0.46153846  0.15384615  0.07692308       0.022
  -0.46153846  0.15384615  0.07692308       0.022
   0.30769231  0.23076923  0.07692308       0.011
   0.38461538  0.23076923  0.07692308       0.022
   0.46153846  0.23076923  0.07692308       0.022
  -0.46153846  0.23076923  0.07692308       0.022
  -0.38461538  0.23076923  0.07692308       0.022
  -0.30769231  0.23076923  0.07692308       0.022
  -0.23076923  0.23076923  0.07692308       0.022
  -0.15384615  0.23076923  0.07692308       0.011
   0.38461538  0.30769231  0.07692308       0.011
   0.46153846  0.30769231  0.07692308       0.022
  -0.46153846  0.30769231  0.07692308       0.022
  -0.38461538  0.30769231  0.07692308       0.022
  -0.30769231  0.30769231  0.07692308       0.022
  -0.23076923  0.30769231  0.07692308       0.011
   0.46153846  0.38461538  0.07692308       0.011
  -0.46153846  0.38461538  0.07692308       0.022
  -0.38461538  0.38461538  0.07692308       0.022
  -0.30769231  0.38461538  0.07692308       0.011
  -0.46153846  0.46153846  0.07692308       0.011
  -0.38461538  0.46153846  0.07692308       0.011
   0.46153846  0.30769231  0.15384615       0.011
  -0.46153846  0.30769231  0.15384615       0.022
  -0.38461538  0.30769231  0.15384615       0.022
  -0.46153846  0.38461538  0.15384615       0.011
  -0.38461538  0.38461538  0.15384615       0.022
  -0.30769231  0.38461538  0.15384615       0.022
  -0.23076923  0.38461538  0.15384615       0.011
  -0.38461538  0.46153846  0.15384615       0.011
  -0.30769231  0.46153846  0.15384615       0.011
  -0.30769231  0.46153846  0.23076923       0.011
 
 position of ions in fractional coordinates (direct lattice) 
   0.00000000  0.00000000  0.00000000
   0.25000000  0.25000000  0.25000000
 
 position of ions in cartesian coordinates  (Angst):
   0.00000000  0.00000000  0.00000000
   0.89175000  0.89175000  0.89175000
 


--------------------------------------------------------------------------------------------------------


 k-point  1 :   0.0000 0.0000 0.0000  plane waves:     181
 k-point  2 :   0.0769 0.0000 0.0000  plane waves:     187
 k-point  3 :   0.1538 0.0000 0.0000  plane waves:     193
 k-point  4 :   0.2308-0.0000-0.0000  plane waves:     205
 k-point  5 :   0.3077 0.0000 0.0000  plane waves:     205
 k-point  6 :   0.3846 0.0000 0.0000  plane waves:     204
 k-point  7 :   0.4615-0.0000-0.0000  plane waves:     210
 k-point  8 :   0.0769 0.0769-0.0000  plane waves:     189
 k-point  9 :   0.1538 0.0769-0.0000  plane waves:     196
 k-point 10 :   0.2308 0.0769-0.0000  plane waves:     200
 k-point 11 :   0.3077 0.0769-0.0000  plane waves:     204
 k-point 12 :   0.3846 0.0769 0.0000  plane waves:     206
 k-point 13 :   0.4615 0.0769 0.0000  plane waves:     210
 k-point 14 :  -0.4615 0.0769-0.0000  plane waves:     209
 k-point 15 :  -0.3846 0.0769 0.0000  plane waves:     210
 k-point 16 :  -0.3077 0.0769-0.0000  plane waves:     207
 k-point 17 :  -0.2308 0.0769-0.0000  plane waves:     206
 k-point 18 :  -0.1538 0.0769 0.0000  plane waves:     200
 k-point 19 :  -0.0769 0.0769-0.0000  plane waves:     198
 k-point 20 :   0.1538 0.1538-0.0000  plane waves:     202
 k-point 21 :   0.2308 0.1538 0.0000  plane waves:     203
 k-point 22 :   0.3077 0.1538 0.0000  plane waves:     204
 k-point 23 :   0.3846 0.1538-0.0000  plane waves:     206
 k-point 24 :   0.4615 0.1538 0.0000  plane waves:     205
 k-point 25 :  -0.4615 0.1538-0.0000  plane waves:     209
 k-point 26 :  -0.3846 0.1538-0.0000  plane waves:     209
 k-point 27 :  -0.3077 0.1538 0.0000  plane waves:     207
 k-point 28 :  -0.2308 0.1538-0.0000  plane waves:     204
 k-point 29 :  -0.1538 0.1538-0.0000  plane waves:     200
 k-point 30 :   0.2308 0.2308-0.0000  plane waves:     202
 k-point 31 :   0.3077 0.2308-0.0000  plane waves:     207
 k-point 32 :   0.3846 0.2308-0.0000  plane waves:     209
 k-point 33 :   0.4615 0.2308 0.0000  plane waves:     210
 k-point 34 :  -0.4615 0.2308 0.0000  plane waves:     209
 k-point 35 :  -0.3846 0.2308-0.0000  plane waves:     208
 k-point 36 :  -0.3077 0.2308-0.0000  plane waves:     207
 k-point 37 :  -0.2308 0.2308 0.0000  plane waves:     210
 k-point 38 :   0.3077 0.3077-0.0000  plane waves:     206
 k-point 39 :   0.3846 0.3077-0.0000  plane waves:     209
 k-point 40 :   0.4615 0.3077-0.0000  plane waves:     207
 k-point 41 :  -0.4615 0.3077-0.0000  plane waves:     211
 k-point 42 :  -0.3846 0.3077 0.0000  plane waves:     214
 k-point 43 :  -0.3077 0.3077-0.0000  plane waves:     208
 k-point 44 :   0.3846 0.3846-0.0000  plane waves:     206
 k-point 45 :   0.4615 0.3846-0.0000  plane waves:     208
 k-point 46 :  -0.4615 0.3846-0.0000  plane waves:     211
 k-point 47 :  -0.3846 0.3846-0.0000  plane waves:     208
 k-point 48 :   0.4615 0.4615-0.0000  plane waves:     210
 k-point 49 :  -0.4615 0.4615 0.0000  plane waves:     210
 k-point 50 :   0.2308 0.1538 0.0769  plane waves:     203
 k-point 51 :   0.3077 0.1538 0.0769  plane waves:     205
 k-point 52 :   0.3846 0.1538 0.0769  plane waves:     205
 k-point 53 :   0.4615 0.1538 0.0769  plane waves:     207
 k-point 54 :  -0.4615 0.1538 0.0769  plane waves:     204
 k-point 55 :   0.3077 0.2308 0.0769  plane waves:     206
 k-point 56 :   0.3846 0.2308 0.0769  plane waves:     208
 k-point 57 :   0.4615 0.2308 0.0769  plane waves:     204
 k-point 58 :  -0.4615 0.2308 0.0769  plane waves:     204
 k-point 59 :  -0.3846 0.2308 0.0769  plane waves:     207
 k-point 60 :  -0.3077 0.2308 0.0769  plane waves:     205
 k-point 61 :  -0.2308 0.2308 0.0769  plane waves:     209
 k-point 62 :  -0.1538 0.2308 0.0769  plane waves:     205
 k-point 63 :   0.3846 0.3077 0.0769  plane waves:     210
 k-point 64 :   0.4615 0.3077 0.0769  plane waves:     207
 k-point 65 :  -0.4615 0.3077 0.0769  plane waves:     206
 k-point 66 :  -0.3846 0.3077 0.0769  plane waves:     204
 k-point 67 :  -0.3077 0.3077 0.0769  plane waves:     205
 k-point 68 :  -0.2308 0.3077 0.0769  plane waves:     206
 k-point 69 :   0.4615 0.3846 0.0769  plane waves:     206
 k-point 70 :  -0.4615 0.3846 0.0769  plane waves:     207
 k-point 71 :  -0.3846 0.3846 0.0769  plane waves:     210
 k-point 72 :  -0.3077 0.3846 0.0769  plane waves:     211
 k-point 73 :  -0.4615 0.4615 0.0769  plane waves:     208
 k-point 74 :  -0.3846 0.4615 0.0769  plane waves:     208
 k-point 75 :   0.4615 0.3077 0.1538  plane waves:     206
 k-point 76 :  -0.4615 0.3077 0.1538  plane waves:     205
 k-point 77 :  -0.3846 0.3077 0.1538  plane waves:     208
 k-point 78 :  -0.4615 0.3846 0.1538  plane waves:     203
 k-point 79 :  -0.3846 0.3846 0.1538  plane waves:     209
 k-point 80 :  -0.3077 0.3846 0.1538  plane waves:     207
 k-point 81 :  -0.2308 0.3846 0.1538  plane waves:     206
 k-point 82 :  -0.3846 0.4615 0.1538  plane waves:     210
 k-point 83 :  -0.3077 0.4615 0.1538  plane waves:     204
 k-point 84 :  -0.3077 0.4615 0.2308  plane waves:     206

 maximum and minimum number of plane-waves per node :       214      181

 maximum number of plane-waves:       214
 maximum index in each direction: 
   IXMAX=    4   IYMAX=    4   IZMAX=    4
   IXMIN=   -4   IYMIN=   -4   IZMIN=   -4


 serial   3D FFT for wavefunctions
 parallel 3D FFT for charge:
    minimum data exchange during FFTs selected (reduces bandwidth)


 total amount of memory used by VASP MPI-rank0    31693. kBytes
=======================================================================

   base      :      30000. kBytes
   nonl-proj :       1211. kBytes
   fftplans  :         32. kBytes
   grid      :        100. kBytes
   one-center:          6. kBytes
   wavefun   :        344. kBytes
 
     INWAV:  cpu time    0.0526: real time    0.0578
 Broyden mixing: mesh for mixing (old mesh)
   NGX =  9   NGY =  9   NGZ =  9
  (NGX  = 24   NGY  = 24   NGZ  = 24)
  gives a total of    729 points

 charge density for first step will be calculated from the start-wavefunctions


--------------------------------------------------------------------------------------------------------


 Maximum index for augmentation-charges          163 (set IRDMAX)


--------------------------------------------------------------------------------------------------------


Calculating partial charge density.
Open file   1 INCAR for input.
NBMOD not found, set to   4
No KPOINTS given: use all of them.

*****************************************************
* Parameters from pardens
*****************************************************

NBMOD is set to   4
Selected bands:     1    2    3    4
Selected all k-points to calculate charge density.
Seperate output for each band.
All kpoints, Band no.     1
All kpoints, Band no.     2
All kpoints, Band no.     3
All kpoints, Band no.     4
Finished calculating partial charge density.
VASP will stop now.
