unknown system                          
   3.56700000000000     
     0.500000    0.500000    0.000000
     0.000000    0.500000    0.500000
     0.500000    0.000000    0.500000
   C 
     2
Direct
  0.000000  0.000000  0.000000
  0.250000  0.250000  0.250000
 
   24   24   24
  5.3251      5.5438      5.9235      5.9417      5.3750      4.4560      3.5507      2.8127      2.2459      1.8508    
  1.5921      1.4444      1.3962      1.4444      1.5921      1.8508      2.2459      2.8126      3.5507      4.4561    
  5.3750      5.9418      5.9235      5.5438      5.5438      5.9233      6.2188      5.9975      5.2638      4.3527    
  3.5422      2.8872      2.4087      2.0815      1.8731      1.7704      1.7709      1.8738      2.0813      2.4078    
  2.8869      3.5427      4.3530      5.2631      5.9969      6.2196      5.9254      5.5449      5.9235      6.2188    
  6.2149      5.7319      4.9544      4.1697      3.5007      2.9851      2.6206      2.3698      2.2157      2.1627    
  2.2157      2.3698      2.6206      2.9851      3.5006      4.1696      4.9544      5.7320      6.2150      6.2188    
  5.9234      5.7505      5.9417      5.9975      5.7319      5.1785      4.5388      3.9531      3.4765      3.1293    
  2.8749      2.6904      2.5874      2.5873      2.6902      2.8751      3.1298      3.4767      3.9528      4.5387    
  5.1790      5.7323      5.9968      5.9401      5.7844      5.7853      5.3750      5.2638      4.9544      4.5388    
  4.1202      3.7627      3.5006      3.2985      3.1239      2.9938      2.9445      2.9939      3.1239      3.2984    
  3.5006      3.7628      4.1203      4.5387      4.9544      5.2638      5.3750      5.3325      5.2898      5.3326    
  4.4560      4.3527      4.1697      3.9531      3.7627      3.6372      3.5422      3.4363      3.3280      3.2557    
  3.2556      3.3279      3.4360      3.5420      3.6371      3.7626      3.9528      4.1695      4.3530      4.4567    
  4.4666      4.4369      4.4367      4.4659      3.5507      3.5422      3.5007      3.4765      3.5006      3.5422    
  3.5509      3.5199      3.4726      3.4497      3.4725      3.5198      3.5508      3.5422      3.5007      3.4765    
  3.5006      3.5422      3.5509      3.5198      3.4725      3.4497      3.4726      3.5199      2.8127      2.8872    
  2.9851      3.1293      3.2985      3.4363      3.5199      3.5504      3.5517      3.5519      3.5507      3.5199    
  3.4361      3.2987      3.1299      2.9854      2.8868      2.8120      2.7307      2.6451      2.5885      2.5884    
  2.6451      2.7311      2.2459      2.4087      2.6206      2.8749      3.1239      3.3280      3.4726      3.5517    
  3.5754      3.5517      3.4726      3.3280      3.1239      2.8750      2.6206      2.4086      2.2458      2.1145    
  2.0029      1.9207      1.8896      1.9206      2.0028      2.1145      1.8508      2.0815      2.3698      2.6904    
  2.9938      3.2557      3.4497      3.5519      3.5517      3.4494      3.2557      2.9939      2.6902      2.3692    
  2.0813      1.8514      1.6728      1.5311      1.4243      1.3647      1.3650      1.4248      1.5309      1.6719    
  1.5921      1.8731      2.2157      2.5874      2.9445      3.2556      3.4725      3.5507      3.4726      3.2557    
  2.9445      2.5874      2.2157      1.8732      1.5921      1.3751      1.2090      1.0837      1.0016     0.97247    
  1.0017      1.0837      1.2089      1.3750      1.4444      1.7704      2.1627      2.5873      2.9939      3.3279    
  3.5198      3.5199      3.3280      2.9939      2.5874      2.1631      1.7708      1.4442      1.1899     0.99773    
 0.85551     0.75761     0.70627     0.70597     0.75711     0.85553     0.99841      1.1906      1.3962      1.7709    
  2.2157      2.6902      3.1239      3.4360      3.5508      3.4361      3.1239      2.6902      2.2157      1.7708    
  1.3962      1.1011     0.87724     0.71193     0.59650     0.52739     0.50427     0.52739     0.59647     0.71188    
 0.87723      1.1012      1.4444      1.8738      2.3698      2.8751      3.2984      3.5420      3.5422      3.2987    
  2.8750      2.3692      1.8732      1.4442      1.1011     0.83810     0.64221     0.50310     0.41419     0.37111    
 0.37128     0.41452     0.50322     0.64187     0.83745      1.1007      1.5921      2.0813      2.6206      3.1298    
  3.5006      3.6371      3.5007      3.1299      2.6206      2.0813      1.5921      1.1899     0.87724     0.64221    
 0.47233     0.35882     0.29470     0.27414     0.29468     0.35883     0.47237     0.64224     0.87723      1.1898    
  1.8508      2.4078      2.9851      3.4767      3.7628      3.7626      3.4765      2.9854      2.4086      1.8514    
  1.3751     0.99773     0.71193     0.50310     0.35882     0.26970     0.22780     0.22776     0.26955     0.35863    
 0.50316     0.71245     0.99840      1.3753      2.2459      2.8869      3.5006      3.9528      4.1203      3.9528    
  3.5006      2.8868      2.2458      1.6728      1.2090     0.85551     0.59650     0.41419     0.29470     0.22780    
 0.20639     0.22780     0.29470     0.41418     0.59647     0.85546      1.2089      1.6729      2.8126      3.5427    
  4.1696      4.5387      4.5387      4.1695      3.5422      2.8120      2.1145      1.5311      1.0837     0.75761    
 0.52739     0.37111     0.27414     0.22776     0.22780     0.27428     0.37128     0.52734     0.75718      1.0831    
  1.5309      2.1149      3.5507      4.3530      4.9544      5.1790      4.9544      4.3530      3.5509      2.7307    
  2.0029      1.4243      1.0016     0.70627     0.50427     0.37128     0.29468     0.26955     0.29470     0.37128    
 0.50424     0.70628      1.0017      1.4244      2.0029      2.7305      4.4561      5.2631      5.7320      5.7323    
  5.2638      4.4567      3.5198      2.6451      1.9207      1.3647     0.97247     0.70597     0.52739     0.41452    
 0.35883     0.35863     0.41418     0.52734     0.70628     0.97287      1.3649      1.9208      2.6451      3.5196    
  5.3750      5.9969      6.2150      5.9968      5.3750      4.4666      3.4725      2.5885      1.8896      1.3650    
  1.0017     0.75711     0.59647     0.50322     0.47237     0.50316     0.59647     0.75718      1.0017      1.3649    
  1.8895      2.5885      3.4726      4.4667      5.9418      6.2196      6.2188      5.9401      5.3325      4.4369    
  3.4497      2.5884      1.9206      1.4248      1.0837     0.85553     0.71188     0.64187     0.64224     0.71245    
 0.85546      1.0831      1.4244      1.9208      2.5885      3.4492      4.4365      5.3333      5.9235      5.9254    
  5.9234      5.7844      5.2898      4.4367      3.4726      2.6451      2.0028      1.5309      1.2089     0.99841    
 0.87723     0.83745     0.87723     0.99840      1.2089      1.5309      2.0029      2.6451      3.4726      4.4365    
  5.2897      5.7845      5.5438      5.5449      5.7505      5.7853      5.3326      4.4659      3.5199      2.7311    
  2.1145      1.6719      1.3750      1.1906      1.1012      1.1007      1.1898      1.3753      1.6729      2.1149    
  2.7305      3.5196      4.4667      5.3333      5.7845      5.7485      5.5438      5.9234      6.2188      5.9976    
  5.2638      4.3527      3.5421      2.8871      2.4087      2.0815      1.8731      1.7704      1.7709      1.8738    
  2.0813      2.4078      2.8869      3.5427      4.3530      5.2630      5.9968      6.2196      5.9253      5.5449    
  5.9234      6.3213      6.4073      5.9552      5.1568      4.3350      3.6372      3.0989      2.7195      2.4597    
  2.3010      2.2468      2.3013      2.4597      2.7189      3.0984      3.6371      4.3349      5.1560      5.9546    
  6.4081      6.3236      5.9255      5.7058      6.2188      6.4073      6.2070      5.6313      4.9269      4.2847    
  3.7628      3.3842      3.1090      2.9101      2.7997      2.7996      2.9100      3.1090      3.3843      3.7628    
  4.2843      4.9264      5.6312      6.2074      6.4079      6.2192      5.9533      5.9532      5.9976      5.9552    
  5.6313      5.1474      4.6639      4.2535      3.9531      3.7217      3.5250      3.3805      3.3261      3.3812    
  3.5257      3.7218      3.9528      4.2533      4.6640      5.1477      5.6315      5.9549      5.9967      5.8483    
  5.7549      5.8491      5.2638      5.1568      4.9269      4.6639      4.4351      4.2846      4.1697      4.0477    
  3.9212      3.8340      3.8346      3.9223      4.0483      4.1694      4.2842      4.4350      4.6640      4.9268    
  5.1566      5.2638      5.2263      5.1457      5.1457      5.2262      4.3527      4.3350      4.2847      4.2535    
  4.2846      4.3350      4.3528      4.3129      4.2410      4.2048      4.2415      4.3135      4.3532      4.3350    
  4.2842      4.2529      4.2842      4.3350      4.3532      4.3135      4.2415      4.2048      4.2411      4.3129    
  3.5421      3.6372      3.7628      3.9531      4.1697      4.3528      4.4561      4.4659      4.4366      4.4369    
  4.4666      4.4567      4.3529      4.1696      3.9529      3.7626      3.6371      3.5421      3.4361      3.3279    
  3.2556      3.2557      3.3281      3.4362      2.8871      3.0989      3.3842      3.7217      4.0477      4.3129    
  4.4659      4.5130      4.5163      4.5134      4.4664      4.3132      4.0479      3.7219      3.3844      3.0989    
  2.8868      2.7210      2.5785      2.4706      2.4294      2.4710      2.5791      2.7215      2.4087      2.7195    
  3.1090      3.5250      3.9212      4.2410      4.4366      4.5163      4.5159      4.4359      4.2410      3.9218    
  3.5255      3.1088      2.7190      2.4085      2.1752      1.9954      1.8611      1.7858      1.7860      1.8613    
  1.9953      2.1749      2.0815      2.4597      2.9101      3.3805      3.8340      4.2048      4.4369      4.5134    
  4.4359      4.2040      3.8341      3.3810      2.9101      2.4592      2.0813      1.7945      1.5807      1.4217    
  1.3179      1.2811      1.3180      1.4214      1.5800      1.7941      1.8731      2.3010      2.7997      3.3261    
  3.8346      4.2415      4.4666      4.4664      4.2410      3.8341      3.3259      2.8000      2.3015      1.8734    
  1.5432      1.2999      1.1220     0.99865     0.93329     0.93319     0.99850      1.1220      1.3001      1.5433    
  1.7704      2.2468      2.7996      3.3812      3.9223      4.3135      4.4567      4.3132      3.9218      3.3810    
  2.8000      2.2474      1.7708      1.3985      1.1234     0.92409     0.78419     0.69843     0.66905     0.69825    
 0.78420     0.92452      1.1240      1.3987      1.7709      2.3013      2.9100      3.5257      4.0483      4.3532    
  4.3529      4.0479      3.5255      2.9101      2.3015      1.7708      1.3511      1.0375     0.80954     0.64835    
 0.54342     0.49122     0.49128     0.54348     0.64826     0.80937      1.0375      1.3512      1.8738      2.4597    
  3.1090      3.7218      4.1694      4.3350      4.1696      3.7219      3.1088      2.4592      1.8734      1.3985    
  1.0375     0.77181     0.58160     0.45342     0.37949     0.35545     0.37967     0.45350     0.58132     0.77125    
  1.0371      1.3986      2.0813      2.7189      3.3843      3.9528      4.2842      4.2842      3.9529      3.3844    
  2.7190      2.0813      1.5432      1.1234     0.80954     0.58160     0.42368     0.32516     0.27829     0.27829    
 0.32518     0.42373     0.58164     0.80954      1.1233      1.5432      2.4078      3.0984      3.7628      4.2533    
  4.4350      4.2529      3.7626      3.0989      2.4085      1.7945      1.2999     0.92409     0.64835     0.45342    
 0.32516     0.25331     0.23032     0.25321     0.32504     0.45347     0.64876     0.92467      1.3002      1.7941    
  2.8869      3.6371      4.2843      4.6640      4.6640      4.2842      3.6371      2.8868      2.1752      1.5807    
  1.1220     0.78419     0.54342     0.37949     0.27829     0.23032     0.23033     0.27829     0.37947     0.54339    
 0.78417      1.1220      1.5807      2.1752      3.5427      4.3349      4.9264      5.1477      4.9268      4.3350    
  3.5421      2.7210      1.9954      1.4217     0.99865     0.69843     0.49122     0.35545     0.27829     0.25321    
 0.27829     0.35558     0.49134     0.69819     0.99799      1.4212      1.9957      2.7218      4.3530      5.1560    
  5.6312      5.6315      5.1566      4.3532      3.4361      2.5785      1.8611      1.3179     0.93329     0.66905    
 0.49128     0.37967     0.32518     0.32504     0.37947     0.49134     0.66932     0.93341      1.3177      1.8610    
  2.5787      3.4363      5.2630      5.9546      6.2074      5.9549      5.2638      4.3135      3.3279      2.4706    
  1.7858      1.2811     0.93319     0.69825     0.54348     0.45350     0.42373     0.45347     0.54339     0.69819    
 0.93341      1.2817      1.7864      2.4707      3.3273      4.3127      5.9968      6.4081      6.4079      5.9967    
  5.2263      4.2415      3.2556      2.4294      1.7860      1.3180     0.99850     0.78420     0.64826     0.58132    
 0.58164     0.64876     0.78417     0.99799      1.3177      1.7864      2.4300      3.2556      4.2410      5.2259    
  6.2196      6.3236      6.2192      5.8483      5.1457      4.2048      3.2557      2.4710      1.8613      1.4214    
  1.1220     0.92452     0.80937     0.77125     0.80954     0.92467      1.1220      1.4212      1.8610      2.4707    
  3.2556      4.2050      5.1462      5.8490      5.9253      5.9255      5.9533      5.7549      5.1457      4.2411    
  3.3281      2.5791      1.9953      1.5800      1.3001      1.1240      1.0375      1.0371      1.1233      1.3002    
  1.5807      1.9957      2.5787      3.3273      4.2410      5.1462      5.7553      5.9532      5.5449      5.7058    
  5.9532      5.8491      5.2262      4.3129      3.4362      2.7215      2.1749      1.7941      1.5433      1.3987    
  1.3512      1.3986      1.5432      1.7941      2.1752      2.7218      3.4363      4.3127      5.2259      5.8490    
  5.9532      5.7058      5.9235      6.2189      6.2150      5.7318      4.9544      4.1697      3.5006      2.9850    
  2.6206      2.3699      2.2157      2.1627      2.2158      2.3698      2.6206      2.9850      3.5007      4.1697    
  4.9544      5.7319      6.2150      6.2188      5.9234      5.7505      6.2189      6.4073      6.2069      5.6312    
  4.9269      4.2846      3.7627      3.3841      3.1090      2.9101      2.7997      2.7996      2.9100      3.1090    
  3.3843      3.7627      4.2843      4.9264      5.6311      6.2074      6.4079      6.2192      5.9533      5.9533    
  6.2150      6.2069      5.8832      5.3749      4.8656      4.4352      4.1203      3.8786      3.6748      3.5249    
  3.4679      3.5249      3.6748      3.8785      4.1203      4.4353      4.8656      5.3748      5.8831      6.2070    
  6.2150      6.0193      5.9033      6.0193      5.7318      5.6312      5.3749      5.0815      4.8303      4.6639    
  4.5387      4.4098      4.2719      4.1739      4.1739      4.2719      4.4098      4.5388      4.6640      4.8304    
  5.0817      5.3752      5.6312      5.7313      5.6524      5.5320      5.5324      5.6532      4.9544      4.9269    
  4.8656      4.8303      4.8655      4.9268      4.9543      4.9018      4.8013      4.7498      4.8014      4.9018    
  4.9544      4.9269      4.8656      4.8302      4.8655      4.9269      4.9544      4.9018      4.8013      4.7498    
  4.8013      4.9018      4.1697      4.2846      4.4352      4.6639      4.9268      5.1567      5.2638      5.2262    
  5.1456      5.1458      5.2264      5.2638      5.1566      4.9268      4.6640      4.4350      4.2842      4.1695    
  4.0484      3.9223      3.8346      3.8341      3.9213      4.0478      3.5006      3.7627      4.1203      4.5387    
  4.9543      5.2638      5.3750      5.3325      5.2897      5.3326      5.3750      5.2638      4.9543      4.5387    
  4.1203      3.7628      3.5006      3.2985      3.1239      2.9938      2.9445      2.9938      3.1239      3.2985    
  2.9850      3.3841      3.8786      4.4098      4.9018      5.2262      5.3325      5.3192      5.3192      5.3325    
  5.2263      4.9019      4.4097      3.8785      3.3843      2.9855      2.6919      2.4720      2.3103      2.2199    
  2.2204      2.3112      2.4725      2.6917      2.6206      3.1090      3.6748      4.2719      4.8013      5.1456    
  5.2897      5.3192      5.2898      5.1457      4.8013      4.2719      3.6747      3.1089      2.6206      2.2502    
  1.9808      1.7861      1.6612      1.6171      1.6611      1.7860      1.9808      2.2502      2.3699      2.9101    
  3.5249      4.1739      4.7498      5.1458      5.3326      5.3325      5.1457      4.7498      4.1739      3.5248    
  2.9100      2.3696      1.9456      1.6375      1.4168      1.2663      1.1871      1.1869      1.2656      1.4163    
  1.6374      1.9459      2.2157      2.7997      3.4679      4.1739      4.8014      5.2264      5.3750      5.2263    
  4.8013      4.1739      3.4679      2.7997      2.2158      1.7489      1.4075      1.1650     0.99609     0.89237    
 0.85684     0.89242     0.99617      1.1650      1.4075      1.7488      2.1627      2.7996      3.5249      4.2719    
  4.9018      5.2638      5.2638      4.9019      4.2719      3.5248      2.7997      2.1629      1.6503      1.2721    
  1.0037     0.81623     0.69317     0.63087     0.63094     0.69340     0.81657      1.0040      1.2721      1.6501    
  2.2158      2.9100      3.6748      4.4098      4.9544      5.1566      4.9543      4.4097      3.6747      2.9100    
  2.2158      1.6503      1.2269     0.92351     0.71039     0.56651     0.48194     0.45382     0.48186     0.56643    
 0.71037     0.92353      1.2270      1.6503      2.3698      3.1090      3.8785      4.5388      4.9269      4.9268    
  4.5387      3.8785      3.1089      2.3696      1.7489      1.2721     0.92351     0.67509     0.50383     0.39579    
 0.34351     0.34354     0.39579     0.50367     0.67480     0.92330      1.2721      1.7492      2.6206      3.3843    
  4.1203      4.6640      4.8656      4.6640      4.1203      3.3843      2.6206      1.9456      1.4075      1.0037    
 0.71039     0.50383     0.36743     0.29035     0.26556     0.29040     0.36749     0.50388     0.71039      1.0037    
  1.4075      1.9456      2.9850      3.7627      4.4353      4.8304      4.8302      4.4350      3.7628      2.9855    
  2.2502      1.6375      1.1650     0.81623     0.56651     0.39579     0.29035     0.24050     0.24049     0.29031    
 0.39577     0.56665     0.81656      1.1653      1.6374      2.2498      3.5007      4.2843      4.8656      5.0817    
  4.8655      4.2842      3.5006      2.6919      1.9808      1.4168     0.99609     0.69317     0.48194     0.34351    
 0.26556     0.24049     0.26556     0.34348     0.48187     0.69313     0.99611      1.4168      1.9808      2.6919    
  4.1697      4.9264      5.3748      5.3752      4.9269      4.1695      3.2985      2.4720      1.7861      1.2663    
 0.89237     0.63087     0.45382     0.34354     0.29040     0.29031     0.34348     0.45399     0.63100     0.89203    
  1.2656      1.7858      2.4726      3.2993      4.9544      5.6311      5.8831      5.6312      4.9544      4.0484    
  3.1239      2.3103      1.6612      1.1871     0.85684     0.63094     0.48186     0.39579     0.36749     0.39577    
 0.48187     0.63100     0.85691      1.1871      1.6611      2.3102      3.1239      4.0484      5.7319      6.2074    
  6.2070      5.7313      4.9018      3.9223      2.9938      2.2199      1.6171      1.1869     0.89242     0.69340    
 0.56643     0.50367     0.50388     0.56665     0.69313     0.89203      1.1871      1.6180      2.2204      2.9932    
  3.9212      4.9015      6.2150      6.4079      6.2150      5.6524      4.8013      3.8346      2.9445      2.2204    
  1.6611      1.2656     0.99617     0.81657     0.71037     0.67480     0.71039     0.81656     0.99611      1.2656    
  1.6611      2.2204      2.9446      3.8347      4.8013      5.6524      6.2188      6.2192      6.0193      5.5320    
  4.7498      3.8341      2.9938      2.3112      1.7860      1.4163      1.1650      1.0040     0.92353     0.92330    
  1.0037      1.1653      1.4168      1.7858      2.3102      2.9932      3.8347      4.7510      5.5325      6.0188    
  5.9234      5.9533      5.9033      5.5324      4.8013      3.9213      3.1239      2.4725      1.9808      1.6374    
  1.4075      1.2721      1.2270      1.2721      1.4075      1.6374      1.9808      2.4726      3.1239      3.9212    
  4.8013      5.5325      5.9032      5.9532      5.7505      5.9533      6.0193      5.6532      4.9018      4.0478    
  3.2985      2.6917      2.2502      1.9459      1.7488      1.6501      1.6503      1.7492      1.9456      2.2498    
  2.6919      3.2993      4.0484      4.9015      5.6524      6.0188      5.9532      5.7506      5.9418      5.9976    
  5.7318      5.1784      4.5387      3.9531      3.4764      3.1293      2.8750      2.6905      2.5874      2.5872    
  2.6902      2.8752      3.1298      3.4767      3.9528      4.5387      5.1790      5.7322      5.9968      5.9402    
  5.7844      5.7853      5.9976      5.9552      5.6312      5.1473      4.6639      4.2535      3.9531      3.7217    
  3.5251      3.3806      3.3261      3.3812      3.5257      3.7219      3.9528      4.2533      4.6640      5.1477    
  5.6314      5.9549      5.9968      5.8484      5.7549      5.8491      5.7318      5.6312      5.3749      5.0814    
  4.8303      4.6639      4.5387      4.4098      4.2720      4.1739      4.1739      4.2719      4.4098      4.5388    
  4.6640      4.8304      5.0817      5.3752      5.6312      5.7313      5.6525      5.5320      5.5324      5.6532    
  5.1784      5.1473      5.0814      5.0453      5.0814      5.1473      5.1784      5.1200      5.0070      4.9485    
  5.0059      5.1190      5.1785      5.1479      5.0817      5.0451      5.0817      5.1479      5.1785      5.1190    
  5.0059      4.9485      5.0070      5.1200      4.5387      4.6639      4.8303      5.0814      5.3749      5.6312    
  5.7318      5.6532      5.5324      5.5320      5.6525      5.7313      5.6312      5.3752      5.0817      4.8304    
  4.6640      4.5388      4.4098      4.2719      4.1739      4.1739      4.2720      4.4098      3.9531      4.2535    
  4.6639      5.1473      5.6312      5.9552      5.9976      5.8491      5.7549      5.8484      5.9968      5.9549    
  5.6314      5.1477      4.6640      4.2533      3.9528      3.7219      3.5257      3.3812      3.3261      3.3806    
  3.5251      3.7217      3.4764      3.9531      4.5387      5.1784      5.7318      5.9976      5.9418      5.7853    
  5.7844      5.9402      5.9968      5.7322      5.1790      4.5387      3.9528      3.4767      3.1298      2.8752    
  2.6902      2.5872      2.5874      2.6905      2.8750      3.1293      3.1293      3.7217      4.4098      5.1200    
  5.6532      5.8491      5.7853      5.7167      5.7847      5.8484      5.6527      5.1198      4.4100      3.7222    
  3.1299      2.6764      2.3524      2.1249      1.9825      1.9331      1.9828      2.1253      2.3526      2.6761    
  2.8750      3.5251      4.2720      5.0070      5.5324      5.7549      5.7844      5.7847      5.7554      5.5323    
  5.0064      4.2716      3.5255      2.8755      2.3525      1.9730      1.7073      1.5310      1.4401      1.4397    
  1.5304      1.7074      1.9736      2.3526      2.6905      3.3806      4.1739      4.9485      5.5320      5.8484    
  5.9402      5.8484      5.5323      4.9490      4.1743      3.3804      2.6900      2.1249      1.7074      1.4141    
  1.2137      1.0926      1.0515      1.0924      1.2133      1.4139      1.7074      2.1253      2.5874      3.3261    
  4.1739      5.0059      5.6525      5.9968      5.9968      5.6527      5.0064      4.1743      3.3260      2.5869    
  1.9825      1.5306      1.2137     0.99522     0.85262     0.78062     0.78087     0.85304     0.99528      1.2133    
  1.5304      1.9828      2.5872      3.3812      4.2719      5.1190      5.7313      5.9549      5.7322      5.1198    
  4.2716      3.3804      2.5869      1.9335      1.4403      1.0924     0.85262     0.69156     0.59601     0.56389    
 0.59597     0.69179     0.85304      1.0924      1.4397      1.9331      2.6902      3.5257      4.4098      5.1785    
  5.6312      5.6314      5.1790      4.4100      3.5255      2.6900      1.9825      1.4403      1.0515     0.78066    
 0.59596     0.47868     0.42099     0.42082     0.47843     0.59597     0.78087      1.0515      1.4401      1.9825    
  2.8752      3.7219      4.5388      5.1479      5.3752      5.1477      4.5387      3.7222      2.8755      2.1249    
  1.5306      1.0924     0.78066     0.56408     0.42092     0.33906     0.31244     0.33908     0.42082     0.56389    
 0.78062      1.0926      1.5310      2.1249      3.1298      3.9528      4.6640      5.0817      5.0817      4.6640    
  3.9528      3.1299      2.3525      1.7074      1.2137     0.85262     0.59596     0.42092     0.31239     0.26073    
 0.26074     0.31244     0.42099     0.59601     0.85262      1.2137      1.7073      2.3524      3.4767      4.2533    
  4.8304      5.0451      4.8304      4.2533      3.4767      2.6764      1.9730      1.4141     0.99522     0.69156    
 0.47868     0.33906     0.26073     0.23563     0.26073     0.33906     0.47868     0.69156     0.99522      1.4141    
  1.9730      2.6764      3.9528      4.6640      5.0817      5.0817      4.6640      3.9528      3.1298      2.3524    
  1.7073      1.2137     0.85262     0.59601     0.42099     0.31244     0.26074     0.26073     0.31239     0.42092    
 0.59596     0.85262      1.2137      1.7074      2.3525      3.1299      4.5387      5.1477      5.3752      5.1479    
  4.5388      3.7219      2.8752      2.1249      1.5310      1.0926     0.78062     0.56389     0.42082     0.33908    
 0.31244     0.33906     0.42092     0.56408     0.78066      1.0924      1.5306      2.1249      2.8755      3.7222    
  5.1790      5.6314      5.6312      5.1785      4.4098      3.5257      2.6902      1.9825      1.4401      1.0515    
 0.78087     0.59597     0.47843     0.42082     0.42099     0.47868     0.59596     0.78066      1.0515      1.4403    
  1.9825      2.6900      3.5255      4.4100      5.7322      5.9549      5.7313      5.1190      4.2719      3.3812    
  2.5872      1.9331      1.4397      1.0924     0.85304     0.69179     0.59597     0.56389     0.59601     0.69156    
 0.85262      1.0924      1.4403      1.9335      2.5869      3.3804      4.2716      5.1198      5.9968      5.9968    
  5.6525      5.0059      4.1739      3.3261      2.5874      1.9828      1.5304      1.2133     0.99528     0.85304    
 0.78087     0.78062     0.85262     0.99522      1.2137      1.5306      1.9825      2.5869      3.3260      4.1743    
  5.0064      5.6527      5.9402      5.8484      5.5320      4.9485      4.1739      3.3806      2.6905      2.1253    
  1.7074      1.4139      1.2133      1.0924      1.0515      1.0926      1.2137      1.4141      1.7074      2.1249    
  2.6900      3.3804      4.1743      4.9490      5.5323      5.8484      5.7844      5.7549      5.5324      5.0070    
  4.2720      3.5251      2.8750      2.3526      1.9736      1.7074      1.5304      1.4397      1.4401      1.5310    
  1.7073      1.9730      2.3525      2.8755      3.5255      4.2716      5.0064      5.5323      5.7554      5.7847    
  5.7853      5.8491      5.6532      5.1200      4.4098      3.7217      3.1293      2.6761      2.3526      2.1253    
  1.9828      1.9331      1.9825      2.1249      2.3524      2.6764      3.1299      3.7222      4.4100      5.1198    
  5.6527      5.8484      5.7847      5.7167      5.3750      5.2638      4.9543      4.5387      4.1203      3.7627    
  3.5006      3.2985      3.1239      2.9938      2.9445      2.9938      3.1239      3.2985      3.5006      3.7628    
  4.1203      4.5387      4.9543      5.2638      5.3750      5.3326      5.2897      5.3325      5.2638      5.1567    
  4.9268      4.6639      4.4352      4.2846      4.1697      4.0478      3.9213      3.8341      3.8346      3.9223    
  4.0484      4.1695      4.2842      4.4350      4.6640      4.9268      5.1566      5.2638      5.2264      5.1458    
  5.1456      5.2262      4.9543      4.9268      4.8655      4.8303      4.8656      4.9269      4.9544      4.9018    
  4.8013      4.7498      4.8013      4.9018      4.9544      4.9269      4.8655      4.8302      4.8656      4.9269    
  4.9544      4.9018      4.8014      4.7498      4.8013      4.9018      4.5387      4.6639      4.8303      5.0815    
  5.3749      5.6312      5.7318      5.6532      5.5324      5.5320      5.6524      5.7313      5.6312      5.3752    
  5.0817      4.8304      4.6640      4.5388      4.4098      4.2719      4.1739      4.1739      4.2719      4.4098    
  4.1203      4.4352      4.8656      5.3749      5.8832      6.2069      6.2150      6.0193      5.9033      6.0193    
  6.2150      6.2070      5.8831      5.3748      4.8656      4.4353      4.1203      3.8785      3.6748      3.5249    
  3.4679      3.5249      3.6748      3.8786      3.7627      4.2846      4.9269      5.6312      6.2069      6.4073    
  6.2189      5.9533      5.9533      6.2192      6.4079      6.2074      5.6311      4.9264      4.2843      3.7627    
  3.3843      3.1090      2.9100      2.7996      2.7997      2.9101      3.1090      3.3841      3.5006      4.1697    