unknown system                          
   3.56700000000000     
     0.500000    0.500000    0.000000
     0.000000    0.500000    0.500000
     0.500000    0.000000    0.500000
   C 
     2
Direct
  0.000000  0.000000  0.000000
  0.250000  0.250000  0.250000
 
   24   24   24
  3.7741      3.9909      4.4450      4.7343      4.6025      4.0954      3.4319      2.8007      2.2954      1.9407    
  1.7160      1.5933      1.5543      1.5933      1.7160      1.9406      2.2953      2.8008      3.4321      4.0956    
  4.6025      4.7342      4.4449      3.9908      3.9909      4.3739      4.8041      4.9169      4.6047      4.0204    
  3.3829      2.8302      2.4202      2.1476      1.9838      1.9068      1.9070      1.9840      2.1473      2.4198    
  2.8301      3.3832      4.0205      4.6043      4.9166      4.8046      4.3751      3.9915      4.4450      4.8041    
  5.0187      4.8812      4.4339      3.8612      3.3219      2.8985      2.6053      2.4176      2.3111      2.2760    
  2.3111      2.4176      2.6053      2.8985      3.3219      3.8611      4.4338      4.8812      5.0188      4.8043    
  4.4451      4.2715      4.7343      4.9169      4.8812      4.5827      4.1331      3.6734      3.2942      3.0238    
  2.8425      2.7255      2.6649      2.6649      2.7254      2.8426      3.0239      3.2942      3.6733      4.1331    
  4.5829      4.8813      4.9165      4.7335      4.5417      4.5421      4.6025      4.6047      4.4339      4.1331    
  3.8013      3.5200      3.3219      3.1880      3.0899      3.0215      2.9958      3.0216      3.0900      3.1879    
  3.3217      3.5201      3.8014      4.1331      4.4339      4.6047      4.6025      4.5020      4.4446      4.5020    
  4.0954      4.0204      3.8612      3.6734      3.5200      3.4301      3.3829      3.3420      3.2947      3.2589    
  3.2590      3.2948      3.3419      3.3828      3.4300      3.5199      3.6732      3.8611      4.0206      4.0960    
  4.0838      4.0448      4.0446      4.0834      3.4319      3.3829      3.3219      3.2942      3.3219      3.3829    
  3.4320      3.4424      3.4241      3.4117      3.4242      3.4425      3.4321      3.3829      3.3218      3.2940    
  3.3217      3.3829      3.4321      3.4425      3.4242      3.4117      3.4241      3.4424      2.8007      2.8302    
  2.8985      3.0238      3.1880      3.3420      3.4424      3.4794      3.4812      3.4814      3.4798      3.4425    
  3.3418      3.1881      3.0240      2.8987      2.8300      2.8003      2.7793      2.7532      2.7323      2.7323    
  2.7533      2.7796      2.2954      2.4202      2.6053      2.8425      3.0899      3.2947      3.4241      3.4812    
  3.4948      3.4813      3.4242      3.2947      3.0899      2.8425      2.6054      2.4203      2.2953      2.2142    
  2.1574      2.1188      2.1045      2.1189      2.1575      2.2142      1.9407      2.1476      2.4176      2.7255    
  3.0215      3.2589      3.4117      3.4814      3.4813      3.4116      3.2590      3.0216      2.7253      2.4172    
  2.1473      1.9410      1.7956      1.6956      1.6291      1.5944      1.5945      1.6293      1.6954      1.7950    
  1.7160      1.9838      2.3111      2.6649      2.9958      3.2590      3.4242      3.4798      3.4242      3.2590    
  2.9958      2.6650      2.3111      1.9837      1.7159      1.5159      1.3740      1.2772      1.2188      1.1988    
  1.2187      1.2772      1.3739      1.5158      1.5933      1.9068      2.2760      2.6649      3.0216      3.2948    
  3.4425      3.4425      3.2947      3.0216      2.6650      2.2764      1.9071      1.5933      1.3485      1.1688    
  1.0431     0.96147     0.92044     0.92030     0.96124      1.0431      1.1692      1.3489      1.5543      1.9070    
  2.3111      2.7254      3.0900      3.3419      3.4321      3.3418      3.0899      2.7253      2.3111      1.9071    
  1.5544      1.2708      1.0561     0.90141     0.79656     0.73504     0.71462     0.73506     0.79660     0.90147    
  1.0562      1.2708      1.5933      1.9840      2.4176      2.8426      3.1879      3.3828      3.3829      3.1881    
  2.8425      2.4172      1.9837      1.5933      1.2708      1.0202     0.83473     0.70454     0.62154     0.58098    
 0.58106     0.62169     0.70459     0.83454      1.0199      1.2705      1.7160      2.1473      2.6053      3.0239    
  3.3217      3.4300      3.3218      3.0240      2.6054      2.1473      1.7159      1.3485      1.0561     0.83473    
 0.67487     0.56737     0.50548     0.48528     0.50549     0.56736     0.67483     0.83469      1.0561      1.3485    
  1.9406      2.4198      2.8985      3.2942      3.5201      3.5199      3.2940      2.8987      2.4203      1.9410    
  1.5159      1.1688     0.90141     0.70454     0.56737     0.48096     0.43929     0.43928     0.48089     0.56727    
 0.70458     0.90171      1.1692      1.5159      2.2953      2.8301      3.3219      3.6733      3.8014      3.6732    
  3.3217      2.8300      2.2953      1.7956      1.3740      1.0431     0.79656     0.62154     0.50548     0.43929    
 0.41778     0.43928     0.50547     0.62155     0.79659      1.0431      1.3740      1.7955      2.8008      3.3832    
  3.8611      4.1331      4.1331      3.8611      3.3829      2.8003      2.2142      1.6956      1.2772     0.96147    
 0.73504     0.58098     0.48528     0.43928     0.43928     0.48532     0.58107     0.73504     0.96122      1.2769    
  1.6954      2.2144      3.4321      4.0205      4.4338      4.5829      4.4339      4.0206      3.4321      2.7793    
  2.1574      1.6291      1.2188     0.92044     0.71462     0.58106     0.50549     0.48089     0.50547     0.58107    
 0.71465     0.92044      1.2187      1.6290      2.1574      2.7794      4.0956      4.6043      4.8812      4.8813    
  4.6047      4.0960      3.4425      2.7532      2.1188      1.5944      1.1988     0.92030     0.73506     0.62169    
 0.56736     0.56727     0.62155     0.73504     0.92044      1.1990      1.5945      2.1189      2.7532      3.4423    
  4.6025      4.9166      5.0188      4.9165      4.6025      4.0838      3.4242      2.7323      2.1045      1.5945    
  1.2187     0.96124     0.79660     0.70459     0.67483     0.70458     0.79659     0.96122      1.2187      1.5945    
  2.1046      2.7323      3.4242      4.0838      4.7342      4.8046      4.8043      4.7335      4.5020      4.0448    
  3.4117      2.7323      2.1189      1.6293      1.2772      1.0431     0.90147     0.83454     0.83469     0.90171    
  1.0431      1.2769      1.6290      2.1189      2.7323      3.4116      4.0447      4.5023      4.4449      4.3751    
  4.4451      4.5417      4.4446      4.0446      3.4241      2.7533      2.1575      1.6954      1.3739      1.1692    
  1.0562      1.0199      1.0561      1.1692      1.3740      1.6954      2.1574      2.7532      3.4242      4.0447    
  4.4446      4.5415      3.9908      3.9915      4.2715      4.5421      4.5020      4.0834      3.4424      2.7796    
  2.2142      1.7950      1.5158      1.3489      1.2708      1.2705      1.3485      1.5159      1.7955      2.2144    
  2.7794      3.4423      4.0838      4.5023      4.5415      4.2702      3.9909      4.3740      4.8041      4.9169    
  4.6047      4.0204      3.3828      2.8302      2.4202      2.1476      1.9838      1.9068      1.9070      1.9840    
  2.1473      2.4198      2.8301      3.3832      4.0205      4.6043      4.9166      4.8046      4.3751      3.9915    
  4.3740      4.8074      5.0981      5.0062      4.5692      3.9859      3.4301      2.9914      2.6870      2.4921    
  2.3818      2.3457      2.3819      2.4921      2.6867      2.9911      3.4301      3.9858      4.5688      5.0058    
  5.0986      4.8087      4.3751      4.1697      4.8041      5.0981      5.1454      4.8766      4.4154      3.9283    
  3.5201      3.2267      3.0294      2.9017      2.8357      2.8358      2.9017      3.0294      3.2267      3.5200    
  3.9281      4.4151      4.8764      5.1456      5.0984      4.8044      4.5313      4.5312      4.9169      5.0062    
  4.8766      4.5713      4.2129      3.8997      3.6734      3.5167      3.4002      3.3189      3.2885      3.3195    
  3.4007      3.5167      3.6732      3.8996      4.2130      4.5715      4.8766      5.0059      4.9164      4.7231    
  4.6256      4.7235      4.6047      4.5692      4.4154      4.2129      4.0381      3.9282      3.8612      3.7986    
  3.7283      3.6764      3.6767      3.7289      3.7989      3.8611      3.9280      4.0381      4.2130      4.4154    
  4.5692      4.6046      4.5289      4.4404      4.4404      4.5291      4.0204      3.9859      3.9283      3.8997    
  3.9282      3.9859      4.0204      4.0007      3.9483      3.9207      3.9485      4.0010      4.0207      3.9859    
  3.9280      3.8993      3.9279      3.9859      4.0207      4.0010      3.9485      3.9207      3.9483      4.0007    
  3.3828      3.4301      3.5201      3.6734      3.8612      4.0204      4.0955      4.0834      4.0446      4.0448    
  4.0839      4.0959      4.0206      3.8612      3.6732      3.5199      3.4300      3.3828      3.3420      3.2948    
  3.2589      3.2589      3.2947      3.3419      2.8302      2.9914      3.2267      3.5167      3.7986      4.0007    
  4.0834      4.0790      4.0642      4.0793      4.0837      4.0008      3.7986      3.5167      3.2268      2.9914    
  2.8300      2.7240      2.6483      2.5956      2.5758      2.5958      2.6487      2.7243      2.4202      2.6870    
  3.0294      3.4002      3.7283      3.9483      4.0446      4.0642      4.0640      4.0443      3.9483      3.7286    
  3.4005      3.0293      2.6868      2.4202      2.2337      2.1079      2.0254      1.9824      1.9826      2.0257    
  2.1079      2.2336      2.1476      2.4921      2.9017      3.3189      3.6764      3.9207      4.0448      4.0793    
  4.0443      3.9202      3.6765      3.3193      2.9017      2.4918      2.1473      1.8903      1.7114      1.5921    
  1.5212      1.4972      1.5213      1.5920      1.7110      1.8901      1.9838      2.3818      2.8357      3.2885    
  3.6767      3.9485      4.0839      4.0837      3.9483      3.6765      3.2886      2.8359      2.3820      1.9838    
  1.6720      1.4467      1.2921      1.1934      1.1441      1.1440      1.1932      1.2920      1.4468      1.6722    
  1.9068      2.3457      2.8358      3.3195      3.7289      4.0010      4.0959      4.0008      3.7286      3.3193    
  2.8359      2.3460      1.9071      1.5526      1.2876      1.1004     0.97541     0.90241     0.87807     0.90231    
 0.97543      1.1006      1.2879      1.5526      1.9070      2.3819      2.9017      3.4007      3.7989      4.0207    
  4.0206      3.7986      3.4005      2.9017      2.3820      1.9071      1.5145      1.2132     0.99424     0.84289    
 0.74691     0.69987     0.69991     0.74700     0.84295     0.99422      1.2131      1.5144      1.9840      2.4921    
  3.0294      3.5167      3.8611      3.9859      3.8612      3.5167      3.0293      2.4918      1.9838      1.5526    
  1.2132     0.96020     0.78004     0.65963     0.59013     0.56735     0.59020     0.65966     0.77989     0.95991    
  1.2130      1.5526      2.1473      2.6867      3.2267      3.6732      3.9280      3.9280      3.6732      3.2268    
  2.6868      2.1473      1.6720      1.2876     0.99424     0.78004     0.63135     0.53753     0.49207     0.49207    
 0.53751     0.63131     0.78000     0.99424      1.2877      1.6721      2.4198      2.9911      3.5200      3.8996    
  4.0381      3.8993      3.5199      2.9914      2.4202      1.8903      1.4467      1.1004     0.84289     0.65963    
 0.53753     0.46759     0.44480     0.46755     0.53747     0.65966     0.84311      1.1007      1.4468      1.8900    
  2.8301      3.4301      3.9281      4.2130      4.2130      3.9279      3.4300      2.8300      2.2337      1.7114    
  1.2921     0.97541     0.74691     0.59013     0.49207     0.44480     0.44479     0.49206     0.59015     0.74696    
 0.97541      1.2920      1.7113      2.2337      3.3832      3.9858      4.4151      4.5715      4.4154      3.9859    
  3.3828      2.7240      2.1079      1.5921      1.1934     0.90241     0.69987     0.56735     0.49207     0.46755    
 0.49206     0.56741     0.69994     0.90228      1.1930      1.5918      2.1081      2.7245      4.0205      4.5688    
  4.8764      4.8766      4.5692      4.0207      3.3420      2.6483      2.0254      1.5212      1.1441     0.87807    
 0.69991     0.59020     0.53751     0.53747     0.59015     0.69994     0.87816      1.1442      1.5212      2.0254    
  2.6484      3.3420      4.6043      5.0058      5.1456      5.0059      4.6046      4.0010      3.2948      2.5956    
  1.9824      1.4972      1.1440     0.90231     0.74700     0.65966     0.63131     0.65966     0.74696     0.90228    
  1.1442      1.4976      1.9828      2.5956      3.2944      4.0005      4.9166      5.0986      5.0984      4.9164    
  4.5289      3.9485      3.2589      2.5758      1.9826      1.5213      1.1932     0.97543     0.84295     0.77989    
 0.78000     0.84311     0.97541      1.1930      1.5212      1.9828      2.5760      3.2589      3.9483      4.5288    
  4.8046      4.8087      4.8044      4.7231      4.4404      3.9207      3.2589      2.5958      2.0257      1.5920    
  1.2920      1.1006     0.99422     0.95991     0.99424      1.1007      1.2920      1.5918      2.0254      2.5956    
  3.2589      3.9209      4.4407      4.7235      4.3751      4.3751      4.5313      4.6256      4.4404      3.9483    
  3.2947      2.6487      2.1079      1.7110      1.4468      1.2879      1.2131      1.2130      1.2877      1.4468    
  1.7113      2.1081      2.6484      3.2944      3.9483      4.4407      4.6258      4.5313      3.9915      4.1697    
  4.5312      4.7235      4.5291      4.0007      3.3419      2.7243      2.2336      1.8901      1.6722      1.5526    
  1.5144      1.5526      1.6721      1.8900      2.2337      2.7245      3.3420      4.0005      4.5288      4.7235    
  4.5313      4.1698      4.4451      4.8042      5.0187      4.8811      4.4339      3.8612      3.3218      2.8985    
  2.6053      2.4176      2.3111      2.2760      2.3111      2.4176      2.6053      2.8985      3.3219      3.8611    
  4.4338      4.8811      5.0188      4.8043      4.4451      4.2715      4.8042      5.0981      5.1454      4.8765    
  4.4153      3.9282      3.5201      3.2267      3.0294      2.9017      2.8357      2.8358      2.9018      3.0294    
  3.2267      3.5200      3.9281      4.4151      4.8764      5.1456      5.0985      4.8045      4.5313      4.5312    
  5.0187      5.1454      5.0354      4.7308      4.3631      4.0381      3.8013      3.6361      3.5128      3.4263    
  3.3938      3.4265      3.5129      3.6360      3.8012      4.0382      4.3632      4.7307      5.0353      5.1454    
  5.0187      4.7868      4.6725      4.7867      4.8811      4.8765      4.7308      4.5220      4.3355      4.2128    
  4.1331      4.0564      3.9707      3.9075      3.9076      3.9707      4.0565      4.1332      4.2129      4.3355    
  4.5220      4.7309      4.8765      4.8807      4.7593      4.6363      4.6366      4.7600      4.4339      4.4153    
  4.3631      4.3355      4.3631      4.4153      4.4339      4.3840      4.2989      4.2567      4.2988      4.3839    
  4.4339      4.4154      4.3631      4.3354      4.3631      4.4154      4.4339      4.3839      4.2987      4.2567    
  4.2990      4.3840      3.8612      3.9282      4.0381      4.2128      4.4153      4.5692      4.6047      4.5290    
  4.4404      4.4404      4.5289      4.6046      4.5692      4.4154      4.2130      4.0380      3.9279      3.8611    
  3.7989      3.7289      3.6767      3.6764      3.7283      3.7986      3.3218      3.5201      3.8013      4.1331    
  4.4339      4.6047      4.6025      4.5020      4.4445      4.5020      4.6025      4.6047      4.4339      4.1332    
  3.8014      3.5200      3.3217      3.1879      3.0900      3.0216      2.9957      3.0215      3.0900      3.1880    
  2.8985      3.2267      3.6361      4.0564      4.3840      4.5290      4.5020      4.4258      4.4257      4.5019    
  4.5290      4.3840      4.0564      3.6361      3.2269      2.8987      2.6675      2.5127      2.4122      2.3601    
  2.3603      2.4127      2.5130      2.6675      2.6053      3.0294      3.5128      3.9707      4.2989      4.4404    
  4.4445      4.4257      4.4443      4.4402      4.2988      3.9707      3.5128      3.0294      2.6054      2.2847    
  2.0632      1.9187      1.8344      1.8062      1.8345      1.9188      2.0632      2.2846      2.4176      2.9017    
  3.4263      3.9075      4.2567      4.4404      4.5020      4.5019      4.4402      4.2566      3.9076      3.4264    
  2.9016      2.4175      2.0297      1.7499      1.5613      1.4435      1.3855      1.3854      1.4431      1.5610    
  1.7498      2.0298      2.3111      2.8357      3.3938      3.9076      4.2988      4.5289      4.6025      4.5290    
  4.2988      3.9076      3.3938      2.8357      2.3111      1.8758      1.5498      1.3226      1.1738      1.0881    
  1.0598      1.0880      1.1737      1.3226      1.5499      1.8758      2.2760      2.8358      3.4265      3.9707    
  4.3839      4.6046      4.6047      4.3840      3.9707      3.4264      2.8357      2.2762      1.8030      1.4390    
  1.1778      1.0005     0.88948     0.83529     0.83532     0.88959      1.0007      1.1780      1.4390      1.8028    
  2.3111      2.9018      3.5129      4.0565      4.4339      4.5692      4.4339      4.0564      3.5128      2.9016    
  2.3111      1.8030      1.4034      1.1092     0.90338     0.76765     0.68965     0.66404     0.68968     0.76770    
 0.90342      1.1092      1.4033      1.8029      2.4176      3.0294      3.6360      4.1332      4.4154      4.4154    
  4.1332      3.6361      3.0294      2.4175      1.8758      1.4390      1.1092     0.87196     0.70929     0.60718    
 0.55764     0.55765     0.60718     0.70921     0.87179      1.1091      1.4391      1.8760      2.6053      3.2267    
  3.8012      4.2129      4.3631      4.2130      3.8014      3.2269      2.6054      2.0297      1.5498      1.1778    
 0.90338     0.70929     0.58035     0.50640     0.48225     0.50637     0.58031     0.70927     0.90341      1.1779    
  1.5500      2.0297      2.8985      3.5200      4.0382      4.3355      4.3354      4.0380      3.5200      2.8987    
  2.2847      1.7499      1.3226      1.0005     0.76765     0.60718     0.50640     0.45771     0.45769     0.50636    
 0.60718     0.76776      1.0007      1.3228      1.7498      2.2844      3.3219      3.9281      4.3632      4.5220    
  4.3631      3.9279      3.3217      2.6675      2.0632      1.5613      1.1738     0.88948     0.68965     0.55764    
 0.48225     0.45769     0.48226     0.55766     0.68967     0.88945      1.1737      1.5612      2.0632      2.6676    
  3.8611      4.4151      4.7307      4.7309      4.4154      3.8611      3.1879      2.5127      1.9187      1.4435    
  1.0881     0.83529     0.66404     0.55765     0.50637     0.50636     0.55766     0.66413     0.83531      1.0879    
  1.4431      1.9186      2.5131      3.1884      4.4338      4.8764      5.0353      4.8765      4.4339      3.7989    
  3.0900      2.4122      1.8344      1.3855      1.0598     0.83532     0.68968     0.60718     0.58031     0.60718    
 0.68967     0.83531      1.0598      1.3856      1.8345      2.4122      3.0900      3.7988      4.8811      5.1456    
  5.1454      4.8807      4.3839      3.7289      3.0216      2.3601      1.8062      1.3854      1.0880     0.88959    
 0.76770     0.70921     0.70927     0.76776     0.88945      1.0879      1.3856      1.8067      2.3603      3.0212    
  3.7282      4.3837      5.0188      5.0985      5.0187      4.7593      4.2987      3.6767      2.9957      2.3603    
  1.8345      1.4431      1.1737      1.0007     0.90342     0.87179     0.90341      1.0007      1.1737      1.4431    
  1.8345      2.3603      2.9957      3.6767      4.2989      4.7595      4.8043      4.8045      4.7868      4.6363    
  4.2567      3.6764      3.0215      2.4127      1.9188      1.5610      1.3226      1.1780      1.1092      1.1091    
  1.1779      1.3228      1.5612      1.9186      2.4122      3.0212      3.6767      4.2573      4.6367      4.7866    
  4.4451      4.5313      4.6725      4.6366      4.2990      3.7283      3.0900      2.5130      2.0632      1.7498    
  1.5499      1.4390      1.4033      1.4391      1.5500      1.7498      2.0632      2.5131      3.0900      3.7282    
  4.2989      4.6367      4.6725      4.5313      4.2715      4.5312      4.7867      4.7600      4.3840      3.7986    
  3.1880      2.6675      2.2846      2.0298      1.8758      1.8028      1.8029      1.8760      2.0297      2.2844    
  2.6676      3.1884      3.7988      4.3837      4.7595      4.7866      4.5313      4.2716      4.7343      4.9169    
  4.8811      4.5826      4.1331      3.6734      3.2941      3.0237      2.8425      2.7255      2.6649      2.6648    
  2.7254      2.8426      3.0239      3.2942      3.6733      4.1331      4.5829      4.8813      4.9165      4.7336    
  4.5417      4.5421      4.9169      5.0061      4.8765      4.5712      4.2129      3.8997      3.6734      3.5167    
  3.4003      3.3190      3.2885      3.3194      3.4007      3.5167      3.6731      3.8996      4.2130      4.5715    
  4.8766      5.0059      4.9165      4.7232      4.6256      4.7235      4.8811      4.8765      4.7307      4.5219    
  4.3355      4.2129      4.1331      4.0564      3.9707      3.9076      3.9075      3.9707      4.0565      4.1331    
  4.2129      4.3355      4.5220      4.7309      4.8765      4.8808      4.7594      4.6364      4.6366      4.7599    
  4.5826      4.5712      4.5219      4.4952      4.5219      4.5712      4.5826      4.5203      4.4218      4.3734    
  4.4211      4.5197      4.5828      4.5716      4.5220      4.4950      4.5220      4.5716      4.5828      4.5197    
  4.4211      4.3734      4.4218      4.5203      4.1331      4.2129      4.3355      4.5219      4.7307      4.8765    
  4.8811      4.7599      4.6366      4.6364      4.7594      4.8808      4.8765      4.7309      4.5220      4.3355    
  4.2129      4.1331      4.0565      3.9707      3.9075      3.9076      3.9707      4.0564      3.6734      3.8997    
  4.2129      4.5712      4.8765      5.0061      4.9169      4.7235      4.6256      4.7232      4.9165      5.0059    
  4.8766      4.5715      4.2130      3.8996      3.6731      3.5167      3.4007      3.3194      3.2885      3.3190    
  3.4003      3.5167      3.2941      3.6734      4.1331      4.5826      4.8811      4.9169      4.7343      4.5421    
  4.5417      4.7336      4.9165      4.8813      4.5829      4.1331      3.6733      3.2942      3.0239      2.8426    
  2.7254      2.6648      2.6649      2.7255      2.8425      3.0237      3.0237      3.5167      4.0564      4.5203    
  4.7599      4.7235      4.5421      4.4435      4.5417      4.7231      4.7596      4.5201      4.0564      3.5169    
  3.0241      2.6436      2.3809      2.2116      2.1146      2.0826      2.1149      2.2119      2.3809      2.6433    
  2.8425      3.4003      3.9707      4.4218      4.6366      4.6256      4.5417      4.5417      4.6256      4.6364    
  4.4214      3.9705      3.4005      2.8429      2.3810      2.0449      1.8207      1.6834      1.6171      1.6169    
  1.6831      1.8207      2.0451      2.3809      2.7255      3.3190      3.9076      4.3734      4.6364      4.7232    
  4.7336      4.7231      4.6364      4.3736      3.9078      3.3190      2.7253      2.2116      1.8206      1.5490    
  1.3739      1.2751      1.2428      1.2749      1.3737      1.5489      1.8207      2.2119      2.6649      3.2885    
  3.9075      4.4211      4.7594      4.9165      4.9165      4.7596      4.4214      3.9078      3.2885      2.6646    
  2.1147      1.6832      1.3738      1.1664      1.0385     0.97691     0.97698      1.0386      1.1664      1.3737    
  1.6831      2.1149      2.6648      3.3194      3.9707      4.5197      4.8808      5.0059      4.8813      4.5201    
  3.9705      3.3190      2.6646      2.0828      1.6173      1.2749      1.0384     0.88488     0.79750     0.76888    
 0.79752     0.88503      1.0386      1.2749      1.6169      2.0826      2.7254      3.4007      4.0565      4.5828    
  4.8765      4.8766      4.5829      4.0564      3.4005      2.7253      2.1147      1.6173      1.2429     0.97691    
 0.79747     0.68608     0.63223     0.63219     0.68605     0.79752     0.97698      1.2428      1.6171      2.1146    
  2.8426      3.5167      4.1331      4.5716      4.7309      4.5715      4.1331      3.5169      2.8429      2.2116    
  1.6832      1.2749     0.97691     0.76898     0.63225     0.55416     0.52868     0.55416     0.63219     0.76888    
 0.97691      1.2751      1.6834      2.2116      3.0239      3.6731      4.2129      4.5220      4.5220      4.2130    
  3.6733      3.0241      2.3810      1.8206      1.3738      1.0384     0.79747     0.63225     0.52872     0.47867    
 0.47865     0.52868     0.63223     0.79750      1.0385      1.3739      1.8207      2.3809      3.2942      3.8996    
  4.3355      4.4950      4.3355      3.8996      3.2942      2.6436      2.0449      1.5490      1.1664     0.88488    
 0.68608     0.55416     0.47867     0.45407     0.47867     0.55416     0.68608     0.88488      1.1664      1.5490    
  2.0449      2.6436      3.6733      4.2130      4.5220      4.5220      4.2129      3.6731      3.0239      2.3809    
  1.8207      1.3739      1.0385     0.79750     0.63223     0.52868     0.47865     0.47867     0.52872     0.63225    
 0.79747      1.0384      1.3738      1.8206      2.3810      3.0241      4.1331      4.5715      4.7309      4.5716    
  4.1331      3.5167      2.8426      2.2116      1.6834      1.2751     0.97691     0.76888     0.63219     0.55416    
 0.52868     0.55416     0.63225     0.76898     0.97691      1.2749      1.6832      2.2116      2.8429      3.5169    
  4.5829      4.8766      4.8765      4.5828      4.0565      3.4007      2.7254      2.1146      1.6171      1.2428    
 0.97698     0.79752     0.68605     0.63219     0.63223     0.68608     0.79747     0.97691      1.2429      1.6173    
  2.1147      2.7253      3.4005      4.0564      4.8813      5.0059      4.8808      4.5197      3.9707      3.3194    
  2.6648      2.0826      1.6169      1.2749      1.0386     0.88503     0.79752     0.76888     0.79750     0.88488    
  1.0384      1.2749      1.6173      2.0828      2.6646      3.3190      3.9705      4.5201      4.9165      4.9165    
  4.7594      4.4211      3.9075      3.2885      2.6649      2.1149      1.6831      1.3737      1.1664      1.0386    
 0.97698     0.97691      1.0385      1.1664      1.3738      1.6832      2.1147      2.6646      3.2885      3.9078    
  4.4214      4.7596      4.7336      4.7232      4.6364      4.3734      3.9076      3.3190      2.7255      2.2119    
  1.8207      1.5489      1.3737      1.2749      1.2428      1.2751      1.3739      1.5490      1.8206      2.2116    
  2.7253      3.3190      3.9078      4.3736      4.6364      4.7231      4.5417      4.6256      4.6366      4.4218    
  3.9707      3.4003      2.8425      2.3809      2.0451      1.8207      1.6831      1.6169      1.6171      1.6834    
  1.8207      2.0449      2.3810      2.8429      3.4005      3.9705      4.4214      4.6364      4.6256      4.5417    
  4.5421      4.7235      4.7599      4.5203      4.0564      3.5167      3.0237      2.6433      2.3809      2.2119    
  2.1149      2.0826      2.1146      2.2116      2.3809      2.6436      3.0241      3.5169      4.0564      4.5201    
  4.7596      4.7231      4.5417      4.4435      4.6025      4.6047      4.4339      4.1331      3.8013      3.5201    
  3.3218      3.1880      3.0900      3.0215      2.9957      3.0216      3.0900      3.1879      3.3217      3.5200    
  3.8014      4.1332      4.4339      4.6047      4.6025      4.5020      4.4445      4.5020      4.6047      4.5692    
  4.4153      4.2128      4.0381      3.9282      3.8612      3.7986      3.7283      3.6764      3.6767      3.7289    
  3.7989      3.8611      3.9279      4.0380      4.2130      4.4154      4.5692      4.6046      4.5289      4.4404    
  4.4404      4.5290      4.4339      4.4153      4.3631      4.3355      4.3631      4.4153      4.4339      4.3840    
  4.2990      4.2567      4.2987      4.3839      4.4339      4.4154      4.3631      4.3354      4.3631      4.4154    
  4.4339      4.3839      4.2988      4.2567      4.2989      4.3840      4.1331      4.2128      4.3355      4.5220    
  4.7308      4.8765      4.8811      4.7600      4.6366      4.6363      4.7593      4.8807      4.8765      4.7309    
  4.5220      4.3355      4.2129      4.1332      4.0565      3.9707      3.9076      3.9075      3.9707      4.0564    
  3.8013      4.0381      4.3631      4.7308      5.0354      5.1454      5.0187      4.7867      4.6725      4.7868    
  5.0187      5.1454      5.0353      4.7307      4.3632      4.0382      3.8012      3.6360      3.5129      3.4265    
  3.3938      3.4263      3.5128      3.6361      3.5201      3.9282      4.4153      4.8765      5.1454      5.0981    
  4.8042      4.5312      4.5313      4.8045      5.0985      5.1456      4.8764      4.4151      3.9281      3.5200    
  3.2267      3.0294      2.9018      2.8358      2.8357      2.9017      3.0294      3.2267      3.3218      3.8612    