unknown system                          
   3.56700000000000     
     0.500000    0.500000    0.000000
     0.000000    0.500000    0.500000
     0.500000    0.000000    0.500000
   C 
     2
Direct
  0.000000  0.000000  0.000000
  0.250000  0.250000  0.250000
 
   24   24   24
  4.7269      4.9242      5.2821      5.3511      4.9207      4.1642      3.3858      2.7330      2.2287      1.8799    
  1.6578      1.5359      1.4973      1.5359      1.6578      1.8800      2.2287      2.7329      3.3857      4.1642    
  4.9207      5.3511      5.2821      4.9242      4.9242      5.2570      5.5354      5.3882      4.7995      4.0364    
  3.3380      2.7690      2.3567      2.0824      1.9155      1.8370      1.8375      1.9162      2.0822      2.3559    
  2.7687      3.3385      4.0367      4.7988      5.3875      5.5361      5.2588      4.9251      5.2821      5.5354    
  5.5473      5.1594      4.5134      3.8469      3.2750      2.8395      2.5414      2.3472      2.2348      2.1976    
  2.2349      2.3473      2.5414      2.8395      3.2750      3.8469      4.5134      5.1594      5.5473      5.5353    
  5.2819      5.1365      5.3511      5.3882      5.1594      4.6888      4.1420      3.6427      3.2449      2.9675    
  2.7784      2.6512      2.5834      2.5832      2.6509      2.7786      2.9680      3.2451      3.6424      4.1419    
  4.6893      5.1597      5.3875      5.3496      5.2278      5.2286      4.9207      4.7995      4.5134      4.1420    
  3.7775      3.4787      3.2750      3.1348      3.0245      2.9459      2.9167      2.9460      3.0245      3.1348    
  3.2751      3.4789      3.7775      4.1419      4.5133      4.7995      4.9207      4.9086      4.8823      4.9087    
  4.1642      4.0364      3.8469      3.6427      3.4787      3.3874      3.3380      3.2895      3.2376      3.2010    
  3.2010      3.2374      3.2892      3.3379      3.3874      3.4787      3.6425      3.8468      4.0366      4.1648    
  4.2104      4.2085      4.2083      4.2099      3.3858      3.3380      3.2750      3.2449      3.2750      3.3380    
  3.3859      3.4023      3.3949      3.3879      3.3948      3.4021      3.3857      3.3381      3.2751      3.2449    
  3.2751      3.3381      3.3858      3.4021      3.3947      3.3879      3.3949      3.4022      2.7330      2.7690    
  2.8395      2.9675      3.1348      3.2895      3.4023      3.4635      3.4850      3.4851      3.4637      3.4022    
  3.2893      3.1350      2.9680      2.8398      2.7687      2.7324      2.6983      2.6583      2.6300      2.6299    
  2.6583      2.6986      2.2287      2.3567      2.5414      2.7784      3.0245      3.2376      3.3949      3.4850    
  3.5130      3.4849      3.3948      3.2375      3.0246      2.7785      2.5414      2.3566      2.2286      2.1375    
  2.0660      2.0146      1.9952      2.0145      2.0659      2.1374      1.8799      2.0824      2.3472      2.6512    
  2.9459      3.2010      3.3879      3.4851      3.4849      3.3876      3.2010      2.9460      2.6510      2.3468    
  2.0822      1.8805      1.7336      1.6245      1.5456      1.5024      1.5027      1.5460      1.6243      1.7329    
  1.6578      1.9155      2.2348      2.5834      2.9167      3.2010      3.3948      3.4637      3.3948      3.2010    
  2.9166      2.5833      2.2349      1.9157      1.6579      1.4647      1.3227      1.2195      1.1535      1.1303    
  1.1535      1.2196      1.3228      1.4647      1.5359      1.8370      2.1976      2.5832      2.9460      3.2374    
  3.4021      3.4022      3.2375      2.9460      2.5833      2.1979      1.8374      1.5358      1.3022      1.1284    
  1.0024     0.91720     0.87302     0.87274     0.91674      1.0024      1.1290      1.3028      1.4973      1.8375    
  2.2349      2.6509      3.0245      3.2892      3.3857      3.2893      3.0246      2.6510      2.2349      1.8374    
  1.4972      1.2266      1.0206     0.86860     0.76269     0.69937     0.67821     0.69938     0.76264     0.86851    
  1.0205      1.2267      1.5359      1.9162      2.3473      2.7786      3.1348      3.3379      3.3381      3.1350    
  2.7785      2.3468      1.9157      1.5358      1.2266     0.98624     0.80501     0.67460     0.59002     0.54852    
 0.54868     0.59033     0.67472     0.80471     0.98567      1.2262      1.6578      2.0822      2.5414      2.9680    
  3.2751      3.3874      3.2751      2.9680      2.5414      2.0822      1.6579      1.3022      1.0206     0.80501    
 0.64593     0.53687     0.47357     0.45288     0.47354     0.53688     0.64600     0.80508      1.0206      1.3021    
  1.8800      2.3559      2.8395      3.2451      3.4789      3.4787      3.2449      2.8398      2.3566      1.8805    
  1.4647      1.1284     0.86860     0.67460     0.53687     0.44894     0.40634     0.40629     0.44878     0.53668    
 0.67466     0.86907      1.1290      1.4649      2.2287      2.7687      3.2750      3.6424      3.7775      3.6425    
  3.2751      2.7687      2.2286      1.7336      1.3227      1.0024     0.76269     0.59002     0.47357     0.40634    
 0.38438     0.40635     0.47357     0.59000     0.76264      1.0023      1.3227      1.7337      2.7329      3.3385    
  3.8469      4.1419      4.1419      3.8468      3.3381      2.7324      2.1375      1.6245      1.2195     0.91720    
 0.69937     0.54852     0.45288     0.40629     0.40635     0.45304     0.54868     0.69932     0.91681      1.2190    
  1.6243      2.1378      3.3857      4.0367      4.5134      4.6893      4.5133      4.0366      3.3858      2.6983    
  2.0660      1.5456      1.1535     0.87302     0.67821     0.54868     0.47354     0.44878     0.47357     0.54868    
 0.67817     0.87303      1.1536      1.5457      2.0660      2.6981      4.1642      4.7988      5.1594      5.1597    
  4.7995      4.1648      3.4021      2.6583      2.0146      1.5024      1.1303     0.87274     0.69938     0.59033    
 0.53688     0.53668     0.59000     0.69932     0.87303      1.1306      1.5026      2.0147      2.6584      3.4019    
  4.9207      5.3875      5.5473      5.3875      4.9207      4.2104      3.3947      2.6300      1.9952      1.5027    
  1.1535     0.91674     0.76264     0.67472     0.64600     0.67466     0.76264     0.91681      1.1536      1.5026    
  1.9951      2.6300      3.3948      4.2105      5.3511      5.5361      5.5353      5.3496      4.9086      4.2085    
  3.3879      2.6299      2.0145      1.5460      1.2196      1.0024     0.86851     0.80471     0.80508     0.86907    
  1.0023      1.2190      1.5457      2.0147      2.6300      3.3874      4.2081      4.9094      5.2821      5.2588    
  5.2819      5.2278      4.8823      4.2083      3.3949      2.6583      2.0659      1.6243      1.3228      1.1290    
  1.0205     0.98567      1.0206      1.1290      1.3227      1.6243      2.0660      2.6584      3.3948      4.2081    
  4.8822      5.2280      4.9242      4.9251      5.1365      5.2286      4.9087      4.2099      3.4022      2.6986    
  2.1374      1.7329      1.4647      1.3028      1.2267      1.2262      1.3021      1.4649      1.7337      2.1378    
  2.6981      3.4019      4.2105      4.9094      5.2280      5.1348      4.9242      5.2571      5.5355      5.3882    
  4.7995      4.0364      3.3380      2.7690      2.3567      2.0824      1.9155      1.8370      1.8375      1.9162    
  2.0822      2.3558      2.7687      3.3385      4.0367      4.7988      5.3875      5.5361      5.2588      4.9251    
  5.2571      5.5958      5.6855      5.3297      4.6733      3.9811      3.3874      2.9339      2.6238      2.4229    
  2.3075      2.2696      2.3078      2.4229      2.6233      2.9335      3.3874      3.9810      4.6727      5.3291    
  5.6861      5.5978      5.2589      5.0750      5.5355      5.6855      5.5194      5.0423      4.4522      3.9117    
  3.4788      3.1767      2.9722      2.8355      2.7636      2.7635      2.8354      2.9722      3.1769      3.4788    
  3.9112      4.4517      5.0423      5.5199      5.6860      5.5357      5.3230      5.3230      5.3882      5.3297    
  5.0423      4.6259      4.2151      3.8764      3.6427      3.4805      3.3557      3.2692      3.2374      3.2697    
  3.3563      3.4807      3.6425      3.8761      4.2151      4.6261      5.0425      5.3295      5.3875      5.2871    
  5.2195      5.2878      4.7995      4.6733      4.4522      4.2151      4.0224      3.9116      3.8469      3.7879    
  3.7254      3.6804      3.6810      3.7264      3.7885      3.8467      3.9113      4.0223      4.2151      4.4521    
  4.6731      4.7995      4.8057      4.7632      4.7631      4.8055      4.0364      3.9811      3.9117      3.8764    
  3.9116      3.9811      4.0364      4.0479      4.0242      4.0082      4.0247      4.0485      4.0368      3.9811    
  3.9113      3.8758      3.9112      3.9811      4.0368      4.0485      4.0246      4.0082      4.0242      4.0479    
  3.3380      3.3874      3.4788      3.6427      3.8469      4.0364      4.1643      4.2099      4.2082      4.2085    
  4.2104      4.1647      4.0366      3.8468      3.6425      3.4787      3.3874      3.3379      3.2893      3.2374    
  3.2009      3.2010      3.2376      3.2894      2.7690      2.9339      3.1767      3.4805      3.7879      4.0479    
  4.2099      4.2731      4.2846      4.2735      4.2103      4.0482      3.7881      3.4807      3.1768      2.9339    
  2.7687      2.6545      2.5647      2.4986      2.4736      2.4990      2.5652      2.6550      2.3567      2.6238    
  2.9722      3.3557      3.7254      4.0242      4.2082      4.2846      4.2843      4.2076      4.0242      3.7260    
  3.3562      2.9720      2.6233      2.3565      2.1678      2.0324      1.9364      1.8841      1.8842      1.9366    
  2.0322      2.1676      2.0824      2.4229      2.8355      3.2692      3.6804      4.0082      4.2085      4.2735    
  4.2076      4.0074      3.6804      3.2696      2.8356      2.4225      2.0822      1.8315      1.6525      1.5253    
  1.4447      1.4166      1.4448      1.5251      1.6520      1.8311      1.9155      2.3075      2.7636      3.2374    
  3.6810      4.0247      4.2104      4.2103      4.0242      3.6804      3.2372      2.7638      2.3080      1.9159    
  1.6157      1.3989      1.2449      1.1410      1.0870      1.0869      1.1409      1.2450      1.3991      1.6158    
  1.8370      2.2696      2.7635      3.2697      3.7264      4.0485      4.1647      4.0482      3.7260      3.2696    
  2.7638      2.2702      1.8373      1.4961      1.2440      1.0631     0.93791     0.86214     0.83638     0.86198    
 0.93791      1.0635      1.2445      1.4963      1.8375      2.3078      2.8354      3.3563      3.7885      4.0368    
  4.0366      3.7881      3.3562      2.8356      2.3080      1.8373      1.4579      1.1708     0.96063     0.81153    
 0.71428     0.66584     0.66591     0.71434     0.81141     0.96043      1.1708      1.4581      1.9162      2.4229    
  2.9722      3.4807      3.8467      3.9811      3.8468      3.4807      2.9720      2.4225      1.9159      1.4961    
  1.1708     0.92744     0.75051     0.62921     0.55806     0.53466     0.55823     0.62930     0.75029     0.92697    
  1.1704      1.4962      2.0822      2.6233      3.1769      3.6425      3.9113      3.9113      3.6425      3.1768    
  2.6233      2.0822      1.6157      1.2440     0.96063     0.75051     0.60128     0.50547     0.45871     0.45869    
 0.50547     0.60135     0.75058     0.96060      1.2439      1.6156      2.3558      2.9335      3.4788      3.8761    
  4.0223      3.8758      3.4787      2.9339      2.3565      1.8315      1.3989      1.0631     0.81153     0.62921    
 0.50547     0.43381     0.41035     0.43370     0.50534     0.62924     0.81188      1.0636      1.3991      1.8312    
  2.7687      3.3874      3.9112      4.2151      4.2151      3.9112      3.3874      2.7687      2.1678      1.6525    
  1.2449     0.93791     0.71428     0.55806     0.45871     0.41035     0.41036     0.45871     0.55804     0.71423    
 0.93790      1.2449      1.6526      2.1678      3.3385      3.9810      4.4517      4.6261      4.4521      3.9811    
  3.3379      2.6545      2.0324      1.5253      1.1410     0.86214     0.66584     0.53466     0.45869     0.43370    
 0.45871     0.53480     0.66596     0.86192      1.1404      1.5248      2.0326      2.6553      4.0367      4.6727    
  5.0423      5.0425      4.6731      4.0368      3.2893      2.5647      1.9364      1.4447      1.0870     0.83638    
 0.66591     0.55823     0.50547     0.50534     0.55804     0.66596     0.83662      1.0871      1.4446      1.9363    
  2.5648      3.2895      4.7988      5.3291      5.5199      5.3295      4.7995      4.0485      3.2374      2.4986    
  1.8841      1.4166      1.0869     0.86198     0.71434     0.62930     0.60135     0.62924     0.71423     0.86192    
  1.0871      1.4172      1.8846      2.4987      3.2369      4.0477      5.3875      5.6861      5.6860      5.3875    
  4.8057      4.0246      3.2009      2.4736      1.8842      1.4448      1.1409     0.93791     0.81141     0.75029    
 0.75058     0.81188     0.93790      1.1404      1.4446      1.8846      2.4741      3.2009      4.0242      4.8053    
  5.5361      5.5978      5.5357      5.2871      4.7632      4.0082      3.2010      2.4990      1.9366      1.5251    
  1.2450      1.0635     0.96043     0.92697     0.96060      1.0636      1.2449      1.5248      1.9363      2.4987    
  3.2009      4.0083      4.7636      5.2877      5.2588      5.2589      5.3230      5.2195      4.7631      4.0242    
  3.2376      2.5652      2.0322      1.6520      1.3991      1.2445      1.1708      1.1704      1.2439      1.3991    
  1.6526      2.0326      2.5648      3.2369      4.0242      4.7636      5.2198      5.3229      4.9251      5.0750    
  5.3230      5.2878      4.8055      4.0479      3.2894      2.6550      2.1676      1.8311      1.6158      1.4963    
  1.4581      1.4962      1.6156      1.8312      2.1678      2.6553      3.2895      4.0477      4.8053      5.2877    
  5.3229      5.0749      5.2821      5.5355      5.5473      5.1593      4.5133      3.8469      3.2750      2.8395    
  2.5414      2.3473      2.2349      2.1976      2.2349      2.3473      2.5414      2.8395      3.2750      3.8469    
  4.5134      5.1594      5.5473      5.5353      5.2819      5.1365      5.5355      5.6855      5.5194      5.0423    
  4.4522      3.9116      3.4788      3.1767      2.9722      2.8356      2.7636      2.7635      2.8354      2.9722    
  3.1769      3.4788      3.9112      4.4517      5.0422      5.5199      5.6861      5.5358      5.3231      5.3230    
  5.5473      5.5194      5.2367      4.8051      4.3762      4.0224      3.7775      3.6076      3.4781      3.3884    
  3.3551      3.3883      3.4780      3.6075      3.7775      4.0225      4.3762      4.8051      5.2368      5.5195    
  5.5474      5.4079      5.3219      5.4079      5.1593      5.0423      4.8051      4.5475      4.3385      4.2151    
  4.1420      4.0782      4.0085      3.9566      3.9566      4.0084      4.0781      4.1420      4.2151      4.3387    
  4.5477      4.8053      5.0422      5.1589      5.1304      5.0561      5.0564      5.1310      4.5133      4.4522    
  4.3762      4.3385      4.3762      4.4522      4.5133      4.5146      4.4697      4.4425      4.4699      4.5148    
  4.5133      4.4521      4.3762      4.3386      4.3762      4.4521      4.5133      4.5148      4.4699      4.4425    
  4.4698      4.5147      3.8469      3.9116      4.0224      4.2151      4.4522      4.6733      4.7995      4.8055    
  4.7631      4.7632      4.8057      4.7994      4.6731      4.4521      4.2151      4.0223      3.9112      3.8467    
  3.7885      3.7264      3.6809      3.6804      3.7254      3.7880      3.2750      3.4788      3.7775      4.1420    
  4.5133      4.7995      4.9207      4.9086      4.8823      4.9087      4.9207      4.7994      4.5133      4.1419    
  3.7775      3.4788      3.2751      3.1348      3.0245      2.9459      2.9167      2.9460      3.0245      3.1348    
  2.8395      3.1767      3.6076      4.0782      4.5146      4.8055      4.9086      4.9057      4.9057      4.9087    
  4.8057      4.5148      4.0781      3.6075      3.1768      2.8399      2.6045      2.4405      2.3275      2.2667    
  2.2671      2.3283      2.4410      2.6043      2.5414      2.9722      3.4781      4.0085      4.4697      4.7631    
  4.8823      4.9057      4.8825      4.7633      4.4699      4.0084      3.4780      2.9721      2.5413      2.2224    
  1.9998      1.8469      1.7527      1.7202      1.7526      1.8468      1.9999      2.2225      2.3473      2.8356    
  3.3884      3.9566      4.4425      4.7632      4.9087      4.9087      4.7633      4.4426      3.9565      3.3883    
  2.8355      2.3471      1.9668      1.6956      1.5077      1.3841      1.3207      1.3204      1.3835      1.5073    
  1.6956      1.9670      2.2349      2.7636      3.3551      3.9566      4.4699      4.8057      4.9207      4.8057    
  4.4699      3.9565      3.3551      2.7636      2.2349      1.8089      1.4978      1.2799      1.1318      1.0429    
  1.0129      1.0430      1.1319      1.2800      1.4977      1.8088      2.1976      2.7635      3.3883      4.0084    
  4.5148      4.7994      4.7994      4.5148      4.0084      3.3883      2.7636      2.1977      1.7328      1.3854    
  1.1381     0.96655     0.85523     0.79946     0.79956     0.85547     0.96683      1.1383      1.3853      1.7326    
  2.2349      2.8354      3.4780      4.0781      4.5133      4.6731      4.5133      4.0781      3.4780      2.8355    
  2.2349      1.7328      1.3487      1.0693     0.87130     0.73698     0.65779     0.63143     0.65772     0.73689    
 0.87127      1.0693      1.3488      1.7329      2.3473      2.9722      3.6075      4.1420      4.4521      4.4521    
  4.1419      3.6075      2.9721      2.3471      1.8089      1.3854      1.0693     0.83995     0.67899     0.57555    
 0.52471     0.52472     0.57553     0.67886     0.83973      1.0691      1.3854      1.8090      2.5414      3.1769    
  3.7775      4.2151      4.3762      4.2151      3.7775      3.1768      2.5413      1.9668      1.4978      1.1381    
 0.87130     0.67899     0.54841     0.47247     0.44755     0.47250     0.54847     0.67905     0.87129      1.1380    
  1.4977      1.9667      2.8395      3.4788      4.0225      4.3387      4.3386      4.0223      3.4788      2.8399    
  2.2224      1.6956      1.2799     0.96655     0.73698     0.57555     0.47247     0.42226     0.42225     0.47243    
 0.57552     0.73708     0.96683      1.2802      1.6956      2.2221      3.2750      3.9112      4.3762      4.5477    
  4.3762      3.9112      3.2751      2.6045      1.9998      1.5077      1.1318     0.85523     0.65779     0.52471    
 0.44755     0.42225     0.44756     0.52468     0.65772     0.85521      1.1319      1.5078      1.9999      2.6044    
  3.8469      4.4517      4.8051      4.8053      4.4521      3.8467      3.1348      2.4405      1.8469      1.3841    
  1.0429     0.79946     0.63143     0.52472     0.47250     0.47243     0.52468     0.63159     0.79959      1.0427    
  1.3835      1.8467      2.4410      3.1356      4.5134      5.0422      5.2368      5.0422      4.5133      3.7885    
  3.0245      2.3275      1.7527      1.3207      1.0129     0.79956     0.65772     0.57553     0.54847     0.57552    
 0.65772     0.79959      1.0130      1.3207      1.7526      2.3274      3.0245      3.7886      5.1594      5.5199    
  5.5195      5.1589      4.5148      3.7264      2.9459      2.2667      1.7202      1.3204      1.0430     0.85547    
 0.73689     0.67886     0.67905     0.73708     0.85521      1.0427      1.3207      1.7210      2.2672      2.9454    
  3.7254      4.5145      5.5473      5.6861      5.5474      5.1304      4.4699      3.6809      2.9167      2.2671    
  1.7526      1.3835      1.1319     0.96683     0.87127     0.83973     0.87129     0.96683      1.1319      1.3835    
  1.7526      2.2672      2.9167      3.6810      4.4698      5.1303      5.5353      5.5358      5.4079      5.0561    
  4.4425      3.6804      2.9460      2.3283      1.8468      1.5073      1.2800      1.1383      1.0693      1.0691    
  1.1380      1.2802      1.5078      1.8467      2.3274      2.9454      3.6810      4.4436      5.0565      5.4073    
  5.2819      5.3231      5.3219      5.0564      4.4698      3.7254      3.0245      2.4410      1.9999      1.6956    
  1.4977      1.3853      1.3488      1.3854      1.4977      1.6956      1.9999      2.4410      3.0245      3.7254    
  4.4698      5.0565      5.3218      5.3230      5.1365      5.3230      5.4079      5.1310      4.5147      3.7880    
  3.1348      2.6043      2.2225      1.9670      1.8088      1.7326      1.7329      1.8090      1.9667      2.2221    
  2.6044      3.1356      3.7886      4.5145      5.1303      5.4073      5.3230      5.1366      5.3511      5.3882    
  5.1593      4.6888      4.1420      3.6427      3.2448      2.9674      2.7785      2.6512      2.5834      2.5832    
  2.6509      2.7787      2.9680      3.2451      3.6424      4.1419      4.6893      5.1597      5.3875      5.3496    
  5.2278      5.2286      5.3882      5.3297      5.0422      4.6258      4.2151      3.8764      3.6427      3.4805    
  3.3557      3.2692      3.2374      3.2697      3.3563      3.4807      3.6425      3.8761      4.2151      4.6261    
  5.0425      5.3294      5.3876      5.2872      5.2195      5.2878      5.1593      5.0422      4.8051      4.5475    
  4.3385      4.2151      4.1420      4.0782      4.0085      3.9566      3.9566      4.0084      4.0781      4.1419    
  4.2151      4.3387      4.5477      4.8054      5.0422      5.1589      5.1304      5.0562      5.0564      5.1310    
  4.6888      4.6258      4.5475      4.5096      4.5475      4.6258      4.6888      4.6853      4.6310      4.5984    
  4.6300      4.6844      4.6888      4.6263      4.5477      4.5096      4.5477      4.6263      4.6888      4.6844    
  4.6300      4.5984      4.6310      4.6853      4.1420      4.2151      4.3385      4.5475      4.8051      5.0422    
  5.1593      5.1310      5.0564      5.0562      5.1304      5.1589      5.0422      4.8054      4.5477      4.3387    
  4.2151      4.1419      4.0781      4.0084      3.9566      3.9566      4.0085      4.0782      3.6427      3.8764    
  4.2151      4.6258      5.0422      5.3297      5.3882      5.2878      5.2195      5.2872      5.3876      5.3294    
  5.0425      4.6261      4.2151      3.8761      3.6425      3.4807      3.3563      3.2697      3.2374      3.2692    
  3.3557      3.4805      3.2448      3.6427      4.1420      4.6888      5.1593      5.3882      5.3511      5.2286    
  5.2278      5.3496      5.3875      5.1597      4.6893      4.1419      3.6424      3.2451      2.9680      2.7787    
  2.6509      2.5832      2.5834      2.6512      2.7785      2.9674      2.9674      3.4805      4.0782      4.6853    
  5.1310      5.2878      5.2286      5.1694      5.2282      5.2872      5.1306      4.6851      4.0783      3.4810    
  2.9680      2.5821      2.3163      2.1394      2.0342      1.9988      2.0344      2.1397      2.3164      2.5818    
  2.7785      3.3557      4.0085      4.6310      5.0564      5.2195      5.2278      5.2282      5.2200      5.0564    
  4.6304      4.0082      3.3561      2.7790      2.3163      1.9858      1.7617      1.6191      1.5480      1.5476    
  1.6185      1.7618      1.9864      2.3164      2.6512      3.2692      3.9566      4.5984      5.0562      5.2872    
  5.3496      5.2872      5.0564      4.5988      3.9569      3.2690      2.6508      2.1393      1.7618      1.5005    
  1.3270      1.2254      1.1916      1.2252      1.3267      1.5003      1.7618      2.1397      2.5834      3.2374    
  3.9566      4.6300      5.1304      5.3876      5.3875      5.1306      4.6304      3.9569      3.2373      2.5830    
  2.0342      1.6188      1.3271      1.1286      1.0019     0.93925     0.93951      1.0024      1.1287      1.3267    
  1.6185      2.0344      2.5832      3.2697      4.0084      4.6844      5.1589      5.3294      5.1597      4.6851    
  4.0082      3.2690      2.5830      1.9992      1.5480      1.2252      1.0020     0.85317     0.76583     0.73670    
 0.76581     0.85338      1.0024      1.2252      1.5476      1.9988      2.6509      3.3563      4.0781      4.6888    
  5.0422      5.0425      4.6893      4.0783      3.3561      2.6508      2.0342      1.5480      1.1915     0.93928    
 0.76580     0.65514     0.60057     0.60041     0.65489     0.76581     0.93951      1.1916      1.5480      2.0342    
  2.7787      3.4807      4.1419      4.6263      4.8054      4.6261      4.1419      3.4810      2.7790      2.1393    
  1.6188      1.2252     0.93928     0.73686     0.60050     0.52112     0.49500     0.52112     0.60041     0.73670    
 0.93925      1.2254      1.6191      2.1394      2.9680      3.6425      4.2151      4.5477      4.5477      4.2151    
  3.6424      2.9680      2.3163      1.7618      1.3271      1.0020     0.76580     0.60050     0.49495     0.44339    
 0.44341     0.49500     0.60057     0.76583      1.0019      1.3270      1.7617      2.3163      3.2451      3.8761    
  4.3387      4.5096      4.3387      3.8761      3.2451      2.5821      1.9858      1.5005      1.1286     0.85317    
 0.65514     0.52112     0.44339     0.41793     0.44339     0.52112     0.65514     0.85317      1.1286      1.5005    
  1.9858      2.5821      3.6424      4.2151      4.5477      4.5477      4.2151      3.6425      2.9680      2.3163    
  1.7617      1.3270      1.0019     0.76583     0.60057     0.49500     0.44341     0.44339     0.49495     0.60050    
 0.76580      1.0020      1.3271      1.7618      2.3163      2.9680      4.1419      4.6261      4.8054      4.6263    
  4.1419      3.4807      2.7787      2.1394      1.6191      1.2254     0.93925     0.73670     0.60041     0.52112    
 0.49500     0.52112     0.60050     0.73686     0.93928      1.2252      1.6188      2.1393      2.7790      3.4810    
  4.6893      5.0425      5.0422      4.6888      4.0781      3.3563      2.6509      2.0342      1.5480      1.1916    
 0.93951     0.76581     0.65489     0.60041     0.60057     0.65514     0.76580     0.93928      1.1915      1.5480    
  2.0342      2.6508      3.3561      4.0783      5.1597      5.3294      5.1589      4.6844      4.0084      3.2697    
  2.5832      1.9988      1.5476      1.2252      1.0024     0.85338     0.76581     0.73670     0.76583     0.85317    
  1.0020      1.2252      1.5480      1.9992      2.5830      3.2690      4.0082      4.6851      5.3875      5.3876    
  5.1304      4.6300      3.9566      3.2374      2.5834      2.0344      1.6185      1.3267      1.1287      1.0024    
 0.93951     0.93925      1.0019      1.1286      1.3271      1.6188      2.0342      2.5830      3.2373      3.9569    
  4.6304      5.1306      5.3496      5.2872      5.0562      4.5984      3.9566      3.2692      2.6512      2.1397    
  1.7618      1.5003      1.3267      1.2252      1.1916      1.2254      1.3270      1.5005      1.7618      2.1393    
  2.6508      3.2690      3.9569      4.5988      5.0564      5.2872      5.2278      5.2195      5.0564      4.6310    
  4.0085      3.3557      2.7785      2.3164      1.9864      1.7618      1.6185      1.5476      1.5480      1.6191    
  1.7617      1.9858      2.3163      2.7790      3.3561      4.0082      4.6304      5.0564      5.2200      5.2282    
  5.2286      5.2878      5.1310      4.6853      4.0782      3.4805      2.9674      2.5818      2.3164      2.1397    
  2.0344      1.9988      2.0342      2.1394      2.3163      2.5821      2.9680      3.4810      4.0783      4.6851    
  5.1306      5.2872      5.2282      5.1694      4.9207      4.7995      4.5133      4.1420      3.7775      3.4788    
  3.2750      3.1348      3.0245      2.9460      2.9167      2.9459      3.0245      3.1348      3.2751      3.4788    
  3.7775      4.1419      4.5133      4.7994      4.9207      4.9087      4.8823      4.9086      4.7995      4.6733    
  4.4522      4.2151      4.0224      3.9116      3.8469      3.7880      3.7254      3.6804      3.6809      3.7264    
  3.7885      3.8467      3.9112      4.0223      4.2151      4.4521      4.6731      4.7994      4.8057      4.7632    
  4.7631      4.8055      4.5133      4.4522      4.3762      4.3385      4.3762      4.4522      4.5133      4.5147    
  4.4698      4.4425      4.4699      4.5148      4.5133      4.4521      4.3762      4.3386      4.3762      4.4521    
  4.5133      4.5148      4.4699      4.4425      4.4697      4.5146      4.1420      4.2151      4.3385      4.5475    
  4.8051      5.0423      5.1593      5.1310      5.0564      5.0561      5.1304      5.1589      5.0422      4.8053    
  4.5477      4.3387      4.2151      4.1420      4.0781      4.0084      3.9566      3.9566      4.0085      4.0782    
  3.7775      4.0224      4.3762      4.8051      5.2367      5.5194      5.5473      5.4079      5.3219      5.4079    
  5.5474      5.5195      5.2368      4.8051      4.3762      4.0225      3.7775      3.6075      3.4780      3.3883    
  3.3551      3.3884      3.4781      3.6076      3.4788      3.9116      4.4522      5.0423      5.5194      5.6855    
  5.5355      5.3230      5.3231      5.5358      5.6861      5.5199      5.0422      4.4517      3.9112      3.4788    
  3.1769      2.9722      2.8354      2.7635      2.7636      2.8356      2.9722      3.1767      3.2750      3.8469    