unknown system                          
   3.56700000000000     
     0.500000    0.500000    0.000000
     0.000000    0.500000    0.500000
     0.500000    0.000000    0.500000
   C 
     2
Direct
  0.000000  0.000000  0.000000
  0.250000  0.250000  0.250000
 
   24   24   24
  2.2917      2.5396      3.1325      3.7223      3.9926      3.8368      3.3763      2.8423      2.3936      2.0639    
  1.8490      1.7315      1.6946      1.7315      1.8490      2.0639      2.3936      2.8423      3.3763      3.8368    
  3.9926      3.7223      3.1325      2.5396      2.5396      2.9877      3.6162      4.0723      4.1380      3.8298    
  3.3386      2.8732      2.5100      2.2583      2.1061      2.0358      2.0358      2.1061      2.2583      2.5099    
  2.8731      3.3387      3.8298      4.1380      4.0723      3.6163      2.9879      2.5397      3.1325      3.6162    
  4.0863      4.2818      4.1248      3.7305      3.2971      2.9379      2.6755      2.5049      2.4112      2.3816    
  2.4112      2.5049      2.6755      2.9379      3.2971      3.7305      4.1247      4.2817      4.0863      3.6162    
  3.1326      2.9286      3.7223      4.0723      4.2818      4.2264      3.9464      3.5913      3.2799      3.0428    
  2.8803      2.7811      2.7344      2.7344      2.7811      2.8803      3.0429      3.2799      3.5913      3.9464    
  4.2264      4.2818      4.0722      3.7222      3.4583      3.4584      3.9926      4.1380      4.1248      3.9464    
  3.6968      3.4709      3.2971      3.1755      3.0952      3.0457      3.0282      3.0457      3.0951      3.1755    
  3.2971      3.4709      3.6968      3.9464      4.1248      4.1381      3.9926      3.8042      3.7193      3.8042    
  3.8368      3.8298      3.7305      3.5913      3.4709      3.3881      3.3386      3.3037      3.2685      3.2427    
  3.2427      3.2684      3.3036      3.3386      3.3881      3.4709      3.5913      3.7305      3.8298      3.8369    
  3.7700      3.7034      3.7034      3.7700      3.3763      3.3386      3.2971      3.2799      3.2971      3.3386    
  3.3763      3.3815      3.3629      3.3512      3.3629      3.3815      3.3763      3.3386      3.2971      3.2799    
  3.2971      3.3386      3.3763      3.3815      3.3629      3.3512      3.3629      3.3815      2.8423      2.8732    
  2.9379      3.0428      3.1755      3.3037      3.3815      3.4000      3.3916      3.3917      3.4000      3.3815    
  3.3037      3.1755      3.0429      2.9380      2.8731      2.8422      2.8299      2.8224      2.8162      2.8162    
  2.8224      2.8299      2.3936      2.5100      2.6755      2.8803      3.0952      3.2685      3.3629      3.3916    
  3.3943      3.3916      3.3629      3.2685      3.0952      2.8803      2.6755      2.5100      2.3936      2.3202    
  2.2772      2.2545      2.2472      2.2545      2.2772      2.3202      2.0639      2.2583      2.5049      2.7811    
  3.0457      3.2427      3.3512      3.3917      3.3916      3.3511      3.2427      3.0457      2.7811      2.5048    
  2.2583      2.0639      1.9256      1.8354      1.7820      1.7572      1.7572      1.7820      1.8354      1.9256    
  1.8490      2.1061      2.4112      2.7344      3.0282      3.2427      3.3629      3.4000      3.3629      3.2427    
  3.0282      2.7344      2.4112      2.1061      1.8490      1.6526      1.5144      1.4252      1.3756      1.3596    
  1.3756      1.4252      1.5144      1.6526      1.7315      2.0358      2.3816      2.7344      3.0457      3.2684    
  3.3815      3.3815      3.2685      3.0457      2.7344      2.3817      2.0358      1.7315      1.4871      1.3056    
  1.1805      1.1029      1.0658      1.0658      1.1029      1.1805      1.3056      1.4872      1.6946      2.0358    
  2.4112      2.7811      3.0951      3.3036      3.3763      3.3037      3.0952      2.7811      2.4112      2.0358    
  1.6946      1.4106      1.1909      1.0319     0.92573     0.86502     0.84526     0.86502     0.92573      1.0319    
  1.1909      1.4106      1.7315      2.1061      2.5049      2.8803      3.1755      3.3386      3.3386      3.1755    
  2.8803      2.5048      2.1061      1.7315      1.4106      1.1547     0.96273     0.82769     0.74209     0.70058    
 0.70060     0.74212     0.82770     0.96270      1.1546      1.4105      1.8490      2.2583      2.6755      3.0429    
  3.2971      3.3881      3.2971      3.0429      2.6755      2.2583      1.8490      1.4871      1.1909     0.96273    
 0.79650     0.68418     0.61931     0.59808     0.61930     0.68418     0.79650     0.96273      1.1909      1.4871    
  2.0639      2.5099      2.9379      3.2799      3.4709      3.4709      3.2799      2.9380      2.5100      2.0639    
  1.6526      1.3056      1.0319     0.82769     0.68418     0.59315     0.54899     0.54899     0.59314     0.68416    
 0.82770      1.0320      1.3056      1.6526      2.3936      2.8731      3.2971      3.5913      3.6968      3.5913    
  3.2971      2.8731      2.3936      1.9256      1.5144      1.1805     0.92573     0.74209     0.61931     0.54899    
 0.52611     0.54899     0.61930     0.74209     0.92573      1.1805      1.5144      1.9256      2.8423      3.3387    
  3.7305      3.9464      3.9464      3.7305      3.3386      2.8422      2.3202      1.8354      1.4252      1.1029    
 0.86502     0.70058     0.59808     0.54899     0.54899     0.59809     0.70060     0.86501      1.1029      1.4252    
  1.8354      2.3203      3.3763      3.8298      4.1247      4.2264      4.1248      3.8298      3.3763      2.8299    
  2.2772      1.7820      1.3756      1.0658     0.84526     0.70060     0.61930     0.59314     0.61930     0.70060    
 0.84526      1.0658      1.3756      1.7820      2.2772      2.8299      3.8368      4.1380      4.2817      4.2818    
  4.1381      3.8369      3.3815      2.8224      2.2545      1.7572      1.3596      1.0658     0.86502     0.74212    
 0.68418     0.68416     0.74209     0.86501      1.0658      1.3597      1.7572      2.2545      2.8224      3.3815    
  3.9926      4.0723      4.0863      4.0722      3.9926      3.7700      3.3629      2.8162      2.2472      1.7572    
  1.3756      1.1029     0.92573     0.82770     0.79650     0.82770     0.92573      1.1029      1.3756      1.7572    
  2.2472      2.8162      3.3629      3.7700      3.7223      3.6163      3.6162      3.7222      3.8042      3.7034    
  3.3512      2.8162      2.2545      1.7820      1.4252      1.1805      1.0319     0.96270     0.96273      1.0320    
  1.1805      1.4252      1.7820      2.2545      2.8162      3.3511      3.7034      3.8043      3.1325      2.9879    
  3.1326      3.4583      3.7193      3.7034      3.3629      2.8224      2.2772      1.8354      1.5144      1.3056    
  1.1909      1.1546      1.1909      1.3056      1.5144      1.8354      2.2772      2.8224      3.3629      3.7034    
  3.7193      3.4583      2.5396      2.5397      2.9286      3.4584      3.8042      3.7700      3.3815      2.8299    
  2.3202      1.9256      1.6526      1.4872      1.4106      1.4105      1.4871      1.6526      1.9256      2.3203    
  2.8299      3.3815      3.7700      3.8043      3.4583      2.9284      2.5396      2.9877      3.6162      4.0723    
  4.1380      3.8298      3.3386      2.8731      2.5100      2.2583      2.1061      2.0358      2.0358      2.1061    
  2.2583      2.5099      2.8731      3.3387      3.8298      4.1380      4.0723      3.6163      2.9879      2.5397    
  2.9877      3.5339      4.0794      4.3375      4.2159      3.8299      3.3881      3.0188      2.7477      2.5709    
  2.4737      2.4430      2.4738      2.5709      2.7476      3.0187      3.3881      3.8298      4.2159      4.3375    
  4.0795      3.5341      2.9880      2.7596      3.6162      4.0794      4.3990      4.4173      4.1641      3.8002    
  3.4709      3.2168      3.0406      2.9322      2.8804      2.8804      2.9322      3.0407      3.2168      3.4709    
  3.8002      4.1640      4.4173      4.3991      4.0795      3.6162      3.2800      3.2800      4.0723      4.3375    
  4.4173      4.2823      4.0305      3.7858      3.5913      3.4504      3.3511      3.2860      3.2624      3.2860    
  3.3511      3.4504      3.5913      3.7858      4.0304      4.2823      4.4173      4.3375      4.0722      3.7815    
  3.6564      3.7816      4.1380      4.2159      4.1641      4.0305      3.8990      3.8002      3.7305      3.6644    
  3.5943      3.5454      3.5455      3.5944      3.6644      3.7305      3.8002      3.8990      4.0304      4.1641    
  4.2159      4.1380      3.9774      3.8491      3.8491      3.9774      3.8298      3.8299      3.8002      3.7858    
  3.8002      3.8299      3.8298      3.7775      3.7060      3.6730      3.7061      3.7776      3.8298      3.8298    
  3.8002      3.7858      3.8002      3.8298      3.8298      3.7776      3.7061      3.6730      3.7061      3.7775    
  3.3386      3.3881      3.4709      3.5913      3.7305      3.8298      3.8369      3.7700      3.7034      3.7034    
  3.7700      3.8369      3.8298      3.7305      3.5913      3.4709      3.3881      3.3386      3.3037      3.2684    
  3.2427      3.2427      3.2685      3.3037      2.8731      3.0188      3.2168      3.4504      3.6644      3.7775    
  3.7700      3.7027      3.6661      3.7027      3.7700      3.7775      3.6644      3.4504      3.2168      3.0188    
  2.8731      2.7763      2.7160      2.6824      2.6713      2.6825      2.7161      2.7763      2.5100      2.7477    
  3.0406      3.3511      3.5943      3.7060      3.7034      3.6661      3.6661      3.7033      3.7061      3.5944    
  3.3511      3.0406      2.7477      2.5100      2.3377      2.2240      2.1564      2.1251      2.1251      2.1565    
  2.2240      2.3376      2.2583      2.5709      2.9322      3.2860      3.5454      3.6730      3.7034      3.7027    
  3.7033      3.6729      3.5454      3.2860      2.9321      2.5709      2.2583      2.0163      1.8459      1.7368    
  1.6769      1.6578      1.6769      1.7368      1.8459      2.0163      2.1061      2.4737      2.8804      3.2624    
  3.5455      3.7061      3.7700      3.7700      3.7061      3.5454      3.2624      2.8805      2.4738      2.1061    
  1.8071      1.5851      1.4338      1.3414      1.2979      1.2979      1.3414      1.4338      1.5852      1.8072    
  2.0358      2.4430      2.8804      3.2860      3.5944      3.7776      3.8369      3.7775      3.5944      3.2860    
  2.8805      2.4431      2.0358      1.6927      1.4272      1.2369      1.1119      1.0415      1.0189      1.0415    
  1.1119      1.2370      1.4273      1.6927      2.0358      2.4738      2.9322      3.3511      3.6644      3.8298    
  3.8298      3.6644      3.3511      2.9321      2.4738      2.0358      1.6567      1.3540      1.1286     0.97214    
 0.87448     0.82768     0.82769     0.87449     0.97214      1.1286      1.3540      1.6567      2.1061      2.5709    
  3.0407      3.4504      3.7305      3.8298      3.7305      3.4504      3.0406      2.5709      2.1061      1.6927    
  1.3540      1.0943     0.90679     0.78153     0.70989     0.68658     0.70990     0.78154     0.90678      1.0942    
  1.3540      1.6927      2.2583      2.7476      3.2168      3.5913      3.8002      3.8002      3.5913      3.2168    
  2.7477      2.2583      1.8071      1.4272      1.1286     0.90679     0.75182     0.65403     0.60676     0.60675    
 0.65403     0.75182     0.90680      1.1286      1.4272      1.8071      2.5099      3.0187      3.4709      3.7858    
  3.8990      3.7858      3.4709      3.0188      2.5100      2.0163      1.5851      1.2369     0.97214     0.78153    
 0.65403     0.58095     0.55714     0.58095     0.65402     0.78153     0.97217      1.2370      1.5852      2.0163    
  2.8731      3.3881      3.8002      4.0304      4.0304      3.8002      3.3881      2.8731      2.3377      1.8459    
  1.4338      1.1119     0.87448     0.70989     0.60676     0.55714     0.55714     0.60675     0.70989     0.87448    
  1.1119      1.4338      1.8459      2.3377      3.3387      3.8298      4.1640      4.2823      4.1641      3.8298    
  3.3386      2.7763      2.2240      1.7368      1.3414      1.0415     0.82768     0.68658     0.60675     0.58095    
 0.60675     0.68660     0.82769      1.0415      1.3414      1.7368      2.2240      2.7764      3.8298      4.2159    
  4.4173      4.4173      4.2159      3.8298      3.3037      2.7160      2.1564      1.6769      1.2979      1.0189    
 0.82769     0.70990     0.65403     0.65402     0.70989     0.82769      1.0189      1.2979      1.6769      2.1564    
  2.7161      3.3037      4.1380      4.3375      4.3991      4.3375      4.1380      3.7776      3.2684      2.6824    
  2.1251      1.6578      1.2979      1.0415     0.87449     0.78154     0.75182     0.78153     0.87448      1.0415    
  1.2979      1.6579      2.1251      2.6824      3.2684      3.7775      4.0723      4.0795      4.0795      4.0722    
  3.9774      3.7061      3.2427      2.6713      2.1251      1.6769      1.3414      1.1119     0.97214     0.90678    
 0.90680     0.97217      1.1119      1.3414      1.6769      2.1251      2.6713      3.2427      3.7061      3.9774    
  3.6163      3.5341      3.6162      3.7815      3.8491      3.6730      3.2427      2.6825      2.1565      1.7368    
  1.4338      1.2370      1.1286      1.0942      1.1286      1.2370      1.4338      1.7368      2.1564      2.6824    
  3.2427      3.6730      3.8492      3.7816      2.9879      2.9880      3.2800      3.6564      3.8491      3.7061    
  3.2685      2.7161      2.2240      1.8459      1.5852      1.4273      1.3540      1.3540      1.4272      1.5852    
  1.8459      2.2240      2.7161      3.2684      3.7061      3.8492      3.6564      3.2800      2.5397      2.7596    
  3.2800      3.7816      3.9774      3.7775      3.3037      2.7763      2.3376      2.0163      1.8072      1.6927    
  1.6567      1.6927      1.8071      2.0163      2.3377      2.7764      3.3037      3.7775      3.9774      3.7816    
  3.2800      2.7595      3.1325      3.6162      4.0863      4.2817      4.1248      3.7305      3.2971      2.9379    
  2.6755      2.5049      2.4112      2.3816      2.4112      2.5049      2.6755      2.9379      3.2971      3.7305    
  4.1247      4.2817      4.0863      3.6162      3.1326      2.9286      3.6162      4.0794      4.3990      4.4173    
  4.1641      3.8002      3.4709      3.2168      3.0407      2.9322      2.8804      2.8804      2.9322      3.0407    
  3.2168      3.4709      3.8002      4.1640      4.4173      4.3991      4.0795      3.6162      3.2800      3.2800    
  4.0863      4.3990      4.5166      4.4008      4.1502      3.8990      3.6968      3.5485      3.4412      3.3696    
  3.3435      3.3696      3.4412      3.5485      3.6968      3.8990      4.1502      4.4008      4.5167      4.3990    
  4.0862      3.7555      3.6146      3.7555      4.2817      4.4173      4.4008      4.2759      4.1388      4.0304    
  3.9464      3.8577      3.7636      3.6989      3.6989      3.7636      3.8577      3.9464      4.0305      4.1388    
  4.2760      4.4009      4.4173      4.2817      4.0597      3.8915      3.8916      4.0598      4.1248      4.1641    
  4.1502      4.1388      4.1502      4.1641      4.1247      4.0189      3.9005      3.8486      3.9005      4.0189    
  4.1247      4.1641      4.1502      4.1388      4.1502      4.1641      4.1247      4.0189      3.9005      3.8486    
  3.9005      4.0189      3.7305      3.8002      3.8990      4.0304      4.1641      4.2159      4.1380      3.9774    
  3.8491      3.8491      3.9774      4.1380      4.2159      4.1641      4.0304      3.8990      3.8002      3.7305    
  3.6644      3.5944      3.5455      3.5454      3.5943      3.6644      3.2971      3.4709      3.6968      3.9464    
  4.1247      4.1380      3.9926      3.8042      3.7193      3.8042      3.9926      4.1380      4.1248      3.9464    
  3.6968      3.4709      3.2971      3.1755      3.0952      3.0457      3.0282      3.0457      3.0952      3.1755    
  2.9379      3.2168      3.5485      3.8577      4.0189      3.9774      3.8042      3.6544      3.6544      3.8042    
  3.9774      4.0189      3.8577      3.5485      3.2168      2.9380      2.7305      2.5909      2.5069      2.4676    
  2.4676      2.5070      2.5910      2.7305      2.6755      3.0407      3.4412      3.7636      3.9005      3.8491    
  3.7193      3.6544      3.7193      3.8491      3.9005      3.7636      3.4412      3.0406      2.6755      2.3865    
  2.1808      2.0488      1.9767      1.9538      1.9767      2.0488      2.1808      2.3865      2.5049      2.9322    
  3.3696      3.6989      3.8486      3.8491      3.8042      3.8042      3.8491      3.8487      3.6989      3.3696    
  2.9321      2.5049      2.1493      1.8827      1.7012      1.5915      1.5404      1.5403      1.5914      1.7012    
  1.8827      2.1493      2.4112      2.8804      3.3435      3.6989      3.9005      3.9774      3.9926      3.9774    
  3.9005      3.6989      3.3435      2.8805      2.4112      2.0061      1.6893      1.4626      1.3152      1.2334    
  1.2073      1.2334      1.3152      1.4626      1.6893      2.0061      2.3816      2.8804      3.3696      3.7636    
  4.0189      4.1380      4.1380      4.0189      3.7636      3.3696      2.8805      2.3816      1.9399      1.5833    
  1.3179      1.1355      1.0233     0.97016     0.97017      1.0233      1.1355      1.3179      1.5833      1.9398    
  2.4112      2.9322      3.4412      3.8577      4.1247      4.2159      4.1248      3.8577      3.4412      2.9321    
  2.4112      1.9399      1.5499      1.2506      1.0362     0.89469     0.81480     0.78902     0.81480     0.89469    
  1.0362      1.2506      1.5499      1.9399      2.5049      3.0407      3.5485      3.9464      4.1641      4.1641    
  3.9464      3.5485      3.0406      2.5049      2.0061      1.5833      1.2506      1.0046     0.83413     0.72764    
 0.67654     0.67654     0.72764     0.83412      1.0045      1.2506      1.5833      2.0061      2.6755      3.2168    
  3.6968      4.0305      4.1502      4.0304      3.6968      3.2168      2.6755      2.1493      1.6893      1.3179    
  1.0362     0.83413     0.69962     0.62282     0.59786     0.62282     0.69962     0.83413      1.0362      1.3179    
  1.6893      2.1493      2.9379      3.4709      3.8990      4.1388      4.1388      3.8990      3.4709      2.9380    
  2.3865      1.8827      1.4626      1.1355     0.89469     0.72764     0.62282     0.57233     0.57233     0.62281    
 0.72763     0.89470      1.1355      1.4626      1.8827      2.3865      3.2971      3.8002      4.1502      4.2760    
  4.1502      3.8002      3.2971      2.7305      2.1808      1.7012      1.3152      1.0233     0.81480     0.67654    
 0.59786     0.57233     0.59786     0.67654     0.81480      1.0233      1.3152      1.7012      2.1808      2.7305    
  3.7305      4.1640      4.4008      4.4009      4.1641      3.7305      3.1755      2.5909      2.0488      1.5915    
  1.2334     0.97016     0.78902     0.67654     0.62282     0.62281     0.67654     0.78903     0.97017      1.2334    
  1.5914      2.0488      2.5910      3.1756      4.1247      4.4173      4.5167      4.4173      4.1247      3.6644    
  3.0952      2.5069      1.9767      1.5404      1.2073     0.97017     0.81480     0.72764     0.69962     0.72763    
 0.81480     0.97017      1.2073      1.5404      1.9767      2.5069      3.0951      3.6644      4.2817      4.3991    
  4.3990      4.2817      4.0189      3.5944      3.0457      2.4676      1.9538      1.5403      1.2334      1.0233    
 0.89469     0.83412     0.83413     0.89470      1.0233      1.2334      1.5404      1.9539      2.4677      3.0456    
  3.5943      4.0189      4.0863      4.0795      4.0862      4.0597      3.9005      3.5455      3.0282      2.4676    
  1.9767      1.5914      1.3152      1.1355      1.0362      1.0045      1.0362      1.1355      1.3152      1.5914    
  1.9767      2.4677      3.0282      3.5455      3.9005      4.0597      3.6162      3.6162      3.7555      3.8915    
  3.8486      3.5454      3.0457      2.5070      2.0488      1.7012      1.4626      1.3179      1.2506      1.2506    
  1.3179      1.4626      1.7012      2.0488      2.5069      3.0456      3.5455      3.8488      3.8916      3.7555    
  3.1326      3.2800      3.6146      3.8916      3.9005      3.5943      3.0952      2.5910      2.1808      1.8827    
  1.6893      1.5833      1.5499      1.5833      1.6893      1.8827      2.1808      2.5910      3.0951      3.5943    
  3.9005      3.8916      3.6146      3.2800      2.9286      3.2800      3.7555      4.0598      4.0189      3.6644    
  3.1755      2.7305      2.3865      2.1493      2.0061      1.9398      1.9399      2.0061      2.1493      2.3865    
  2.7305      3.1756      3.6644      4.0189      4.0597      3.7555      3.2800      2.9286      3.7223      4.0723    
  4.2817      4.2264      3.9464      3.5913      3.2799      3.0428      2.8803      2.7811      2.7344      2.7344    
  2.7811      2.8803      3.0429      3.2799      3.5913      3.9464      4.2264      4.2818      4.0722      3.7222    
  3.4583      3.4584      4.0723      4.3375      4.4173      4.2823      4.0304      3.7858      3.5913      3.4504    
  3.3511      3.2860      3.2624      3.2860      3.3511      3.4504      3.5913      3.7858      4.0304      4.2823    
  4.4173      4.3375      4.0722      3.7815      3.6564      3.7816      4.2817      4.4173      4.4008      4.2759    
  4.1388      4.0304      3.9464      3.8577      3.7636      3.6989      3.6989      3.7636      3.8577      3.9464    
  4.0304      4.1388      4.2760      4.4009      4.4173      4.2817      4.0597      3.8915      3.8916      4.0598    
  4.2264      4.2823      4.2759      4.2658      4.2759      4.2823      4.2264      4.0988      3.9616      3.9023    
  3.9615      4.0987      4.2263      4.2823      4.2760      4.2658      4.2760      4.2823      4.2263      4.0987    
  3.9615      3.9023      3.9616      4.0988      3.9464      4.0304      4.1388      4.2759      4.4008      4.4173    
  4.2817      4.0598      3.8916      3.8915      4.0597      4.2817      4.4173      4.4009      4.2760      4.1388    
  4.0304      3.9464      3.8577      3.7636      3.6989      3.6989      3.7636      3.8577      3.5913      3.7858    
  4.0304      4.2823      4.4173      4.3375      4.0723      3.7816      3.6564      3.7815      4.0722      4.3375    
  4.4173      4.2823      4.0304      3.7858      3.5913      3.4504      3.3511      3.2860      3.2624      3.2860    
  3.3511      3.4504      3.2799      3.5913      3.9464      4.2264      4.2817      4.0723      3.7223      3.4584    
  3.4583      3.7222      4.0722      4.2818      4.2264      3.9464      3.5913      3.2799      3.0429      2.8803    
  2.7811      2.7344      2.7344      2.7811      2.8803      3.0428      3.0428      3.4504      3.8577      4.0988    
  4.0598      3.7816      3.4584      3.3171      3.4583      3.7815      4.0597      4.0987      3.8578      3.4505    
  3.0429      2.7124      2.4737      2.3195      2.2351      2.2085      2.2351      2.3196      2.4737      2.7124    
  2.8803      3.3511      3.7636      3.9616      3.8916      3.6564      3.4583      3.4583      3.6564      3.8916    
  3.9616      3.7636      3.3511      2.8804      2.4737      2.1641      1.9522      1.8243      1.7651      1.7650    
  1.8243      1.9522      2.1641      2.4737      2.7811      3.2860      3.6989      3.9023      3.8915      3.7815    
  3.7222      3.7815      3.8916      3.9023      3.6989      3.2860      2.7811      2.3195      1.9522      1.6877    
  1.5163      1.4220      1.3922      1.4220      1.5162      1.6877      1.9522      2.3196      2.7344      3.2624    
  3.6989      3.9615      4.0597      4.0722      4.0722      4.0597      3.9616      3.6989      3.2624      2.7343    
  2.2351      1.8243      1.5163      1.3053      1.1767      1.1165      1.1166      1.1768      1.3053      1.5162    
  1.8243      2.2351      2.7344      3.2860      3.7636      4.0987      4.2817      4.3375      4.2818      4.0987    
  3.7636      3.2860      2.7343      2.2085      1.7651      1.4220      1.1767      1.0165     0.92712     0.89848    
 0.92712      1.0165      1.1768      1.4220      1.7650      2.2085      2.7811      3.3511      3.8577      4.2263    
  4.4173      4.4173      4.2264      3.8578      3.3511      2.7811      2.2351      1.7651      1.3922      1.1165    
 0.92711     0.81009     0.75448     0.75447     0.81008     0.92712      1.1166      1.3922      1.7651      2.2351    
  2.8803      3.4504      3.9464      4.2823      4.4009      4.2823      3.9464      3.4505      2.8804      2.3195    
  1.8243      1.4220      1.1165     0.89850     0.75448     0.67291     0.64653     0.67291     0.75447     0.89848    
  1.1165      1.4220      1.8243      2.3195      3.0429      3.5913      4.0304      4.2760      4.2760      4.0304    
  3.5913      3.0429      2.4737      1.9522      1.5163      1.1767     0.92711     0.75448     0.64653     0.59466    
 0.59466     0.64653     0.75448     0.92712      1.1767      1.5163      1.9522      2.4737      3.2799      3.7858    
  4.1388      4.2658      4.1388      3.7858      3.2799      2.7124      2.1641      1.6877      1.3053      1.0165    
 0.81009     0.67291     0.59466     0.56925     0.59466     0.67291     0.81009      1.0165      1.3053      1.6877    
  2.1641      2.7124      3.5913      4.0304      4.2760      4.2760      4.0304      3.5913      3.0429      2.4737    
  1.9522      1.5163      1.1767     0.92712     0.75448     0.64653     0.59466     0.59466     0.64653     0.75448    
 0.92711      1.1767      1.5163      1.9522      2.4737      3.0429      3.9464      4.2823      4.4009      4.2823    
  3.9464      3.4504      2.8803      2.3195      1.8243      1.4220      1.1165     0.89848     0.75447     0.67291    
 0.64653     0.67291     0.75448     0.89850      1.1165      1.4220      1.8243      2.3195      2.8804      3.4505    
  4.2264      4.4173      4.4173      4.2263      3.8577      3.3511      2.7811      2.2351      1.7651      1.3922    
  1.1166     0.92712     0.81008     0.75447     0.75448     0.81009     0.92711      1.1165      1.3922      1.7651    
  2.2351      2.7811      3.3511      3.8578      4.2818      4.3375      4.2817      4.0987      3.7636      3.2860    
  2.7344      2.2085      1.7650      1.4220      1.1768      1.0165     0.92712     0.89848     0.92712      1.0165    
  1.1767      1.4220      1.7651      2.2085      2.7343      3.2860      3.7636      4.0987      4.0722      4.0722    
  4.0597      3.9615      3.6989      3.2624      2.7344      2.2351      1.8243      1.5162      1.3053      1.1768    
  1.1166      1.1165      1.1767      1.3053      1.5163      1.8243      2.2351      2.7343      3.2624      3.6989    
  3.9616      4.0597      3.7222      3.7815      3.8915      3.9023      3.6989      3.2860      2.7811      2.3196    
  1.9522      1.6877      1.5162      1.4220      1.3922      1.4220      1.5163      1.6877      1.9522      2.3195    
  2.7811      3.2860      3.6989      3.9023      3.8916      3.7815      3.4583      3.6564      3.8916      3.9616    
  3.7636      3.3511      2.8803      2.4737      2.1641      1.9522      1.8243      1.7650      1.7651      1.8243    
  1.9522      2.1641      2.4737      2.8804      3.3511      3.7636      3.9616      3.8916      3.6564      3.4583    
  3.4584      3.7816      4.0598      4.0988      3.8577      3.4504      3.0428      2.7124      2.4737      2.3196    
  2.2351      2.2085      2.2351      2.3195      2.4737      2.7124      3.0429      3.4505      3.8578      4.0987    
  4.0597      3.7815      3.4583      3.3171      3.9926      4.1380      4.1247      3.9464      3.6968      3.4709    
  3.2971      3.1755      3.0952      3.0457      3.0282      3.0457      3.0952      3.1755      3.2971      3.4709    
  3.6968      3.9464      4.1248      4.1380      3.9926      3.8042      3.7193      3.8042      4.1380      4.2159    
  4.1641      4.0304      3.8990      3.8002      3.7305      3.6644      3.5943      3.5454      3.5455      3.5944    
  3.6644      3.7305      3.8002      3.8990      4.0304      4.1641      4.2159      4.1380      3.9774      3.8491    
  3.8491      3.9774      4.1247      4.1641      4.1502      4.1388      4.1502      4.1641      4.1248      4.0189    
  3.9005      3.8486      3.9005      4.0189      4.1247      4.1641      4.1502      4.1388      4.1502      4.1641    
  4.1247      4.0189      3.9005      3.8486      3.9005      4.0189      3.9464      4.0304      4.1388      4.2759    
  4.4008      4.4173      4.2817      4.0598      3.8916      3.8915      4.0597      4.2817      4.4173      4.4009    
  4.2760      4.1388      4.0305      3.9464      3.8577      3.7636      3.6989      3.6989      3.7636      3.8577    
  3.6968      3.8990      4.1502      4.4008      4.5166      4.3990      4.0863      3.7555      3.6146      3.7555    
  4.0862      4.3990      4.5167      4.4008      4.1502      3.8990      3.6968      3.5485      3.4412      3.3696    
  3.3435      3.3696      3.4412      3.5485      3.4709      3.8002      4.1641      4.4173      4.3990      4.0794    
  3.6162      3.2800      3.2800      3.6162      4.0795      4.3991      4.4173      4.1640      3.8002      3.4709    
  3.2168      3.0407      2.9322      2.8804      2.8804      2.9322      3.0407      3.2168      3.2971      3.7305    