unknown system                          
   3.61000000000000     
     0.500000    0.500000   -0.500000
    -0.500000    0.500000    0.500000
     0.500000   -0.500000    0.500000
   Cu
     1
Direct
  0.000000  0.000000  0.000000
 
   28   28   28
  939.42      880.61      720.89      505.74      294.35      136.20      50.169      20.136      11.482      6.7256    
  4.3062      3.2430      2.7420      2.3951      2.2435      2.3951      2.7420      3.2430      4.3062      6.7256    
  11.482      20.136      50.169      136.20      294.35      505.74      720.89      880.61      880.61      861.73    
  737.61      544.26      336.66      167.69      65.710      24.557      13.340      7.7984      4.8238      3.4388    
  2.8484      2.4873      2.2427      2.2786      2.5880      3.0244      3.7853      5.5684      9.2959      15.987    
  33.156      91.904      217.20      403.78      613.06      788.84      720.89      737.61      658.02      506.42    
  328.37      173.03      72.148      27.348      14.472      8.5477      5.2375      3.6033      2.9057      2.5297    
  2.2342      2.1647      2.4014      2.7806      3.3195      4.5292      7.1866      12.154      21.138      51.733    
  132.46      271.68      447.01      613.06      505.74      544.26      506.42      404.75      272.48      149.82    
  66.058      26.784      14.617      8.7903      5.4423      3.7069      2.9189      2.5155      2.2053      2.0646    
  2.2058      2.5165      2.9206      3.7089      5.4426      8.7843      14.599      26.743      65.908      149.39    
  271.68      403.78      294.35      336.66      328.37      272.48      189.50      107.99      50.615      23.207    
  13.738      8.4707      5.3778      3.7112      2.8896      2.4570      2.1493      1.9732      2.0215      2.2509    
  2.5754      3.1046      4.1686      6.2244      9.9201      16.047      29.354      65.908      132.46      217.20    
  136.20      167.69      173.03      149.82      107.99      64.423      33.465      18.678      12.036      7.6762    
  5.0572      3.5959      2.8148      2.3723      2.0707      1.8813      1.8591      2.0070      2.2705      2.6568    
  3.3096      4.5014      6.6528      10.340      16.047      26.743      51.733      91.904      50.169      65.710    
  72.148      66.058      50.615      33.465      21.268      14.622      9.8839      6.5956      4.5581      3.3754    
  2.6936      2.2718      1.9799      1.7870      1.7210      1.8007      2.0038      2.3047      2.7369      3.4285    
  4.6169      6.6528      9.9201      14.599      21.138      33.156      20.136      24.557      27.348      26.784    
  23.207      18.678      14.622      10.838      7.7041      5.4470      3.9860      3.0911      2.5338      2.1578    
  1.8847      1.6958      1.6072      1.6367      1.7799      2.0145      2.3312      2.7670      3.4285      4.5014    
  6.2244      8.7843      12.154      15.987      11.482      13.340      14.472      14.617      13.738      12.036    
  9.8839      7.7041      5.8269      4.4079      3.4325      2.7885      2.3508      2.0309      1.7870      1.6121    
  1.5167      1.5134      1.6038      1.7773      2.0203      2.3312      2.7369      3.3096      4.1686      5.4426    
  7.1866      9.2959      6.7256      7.7984      8.5477      8.7903      8.4707      7.6762      6.5956      5.4470    
  4.4079      3.5728      2.9511      2.4988      2.1600      1.8949      1.6870      1.5356      1.4469      1.4268    
  1.4774      1.5962      1.7773      2.0145      2.3047      2.6568      3.1046      3.7089      4.5292      5.5684    
  4.3062      4.8238      5.2375      5.4423      5.3778      5.0572      4.5581      3.9860      3.4325      2.9511    
  2.5557      2.2353      1.9725      1.7569      1.5869      1.4654      1.3942      1.3729      1.4007      1.4774    
  1.6038      1.7799      2.0038      2.2705      2.5754      2.9206      3.3195      3.7853      3.2430      3.4388    
  3.6033      3.7069      3.7112      3.5959      3.3754      3.0911      2.7885      2.4988      2.2353      2.0007    
  1.7961      1.6251      1.4931      1.4044      1.3582      1.3495      1.3729      1.4268      1.5134      1.6367    
  1.8007      2.0070      2.2509      2.5165      2.7806      3.0244      2.7420      2.8484      2.9057      2.9189    
  2.8896      2.8148      2.6936      2.5338      2.3508      2.1600      1.9725      1.7961      1.6387      1.5089    
  1.4148      1.3605      1.3440      1.3582      1.3942      1.4469      1.5167      1.6072      1.7210      1.8591    
  2.0215      2.2058      2.4014      2.5880      2.3951      2.4873      2.5297      2.5155      2.4570      2.3723    
  2.2718      2.1578      2.0309      1.8949      1.7569      1.6251      1.5089      1.4185      1.3622      1.3438    
  1.3605      1.4044      1.4654      1.5356      1.6121      1.6958      1.7870      1.8813      1.9732      2.0646    
  2.1647      2.2786      2.2435      2.2427      2.2342      2.2053      2.1493      2.0707      1.9799      1.8847    
  1.7870      1.6870      1.5869      1.4931      1.4148      1.3622      1.3436      1.3622      1.4148      1.4931    
  1.5869      1.6870      1.7870      1.8847      1.9799      2.0707      2.1493      2.2053      2.2342      2.2427    
  2.3951      2.2786      2.1647      2.0646      1.9732      1.8813      1.7870      1.6958      1.6121      1.5356    
  1.4654      1.4044      1.3605      1.3438      1.3622      1.4185      1.5089      1.6251      1.7569      1.8949    
  2.0309      2.1578      2.2718      2.3723      2.4570      2.5155      2.5297      2.4873      2.7420      2.5880    
  2.4014      2.2058      2.0215      1.8591      1.7210      1.6072      1.5167      1.4469      1.3942      1.3582    
  1.3440      1.3605      1.4148      1.5089      1.6387      1.7961      1.9725      2.1600      2.3508      2.5338    
  2.6936      2.8148      2.8896      2.9189      2.9057      2.8484      3.2430      3.0244      2.7806      2.5165    
  2.2509      2.0070      1.8007      1.6367      1.5134      1.4268      1.3729      1.3495      1.3582      1.4044    
  1.4931      1.6251      1.7961      2.0007      2.2353      2.4988      2.7885      3.0911      3.3754      3.5959    
  3.7112      3.7069      3.6033      3.4388      4.3062      3.7853      3.3195      2.9206      2.5754      2.2705    
  2.0038      1.7799      1.6038      1.4774      1.4007      1.3729      1.3942      1.4654      1.5869      1.7569    
  1.9725      2.2353      2.5557      2.9511      3.4325      3.9860      4.5581      5.0572      5.3778      5.4423    
  5.2375      4.8238      6.7256      5.5684      4.5292      3.7089      3.1046      2.6568      2.3047      2.0145    
  1.7773      1.5962      1.4774      1.4268      1.4469      1.5356      1.6870      1.8949      2.1600      2.4988    
  2.9511      3.5728      4.4079      5.4470      6.5956      7.6762      8.4707      8.7903      8.5477      7.7984    
  11.482      9.2959      7.1866      5.4426      4.1686      3.3096      2.7369      2.3312      2.0203      1.7773    
  1.6038      1.5134      1.5167      1.6121      1.7870      2.0309      2.3508      2.7885      3.4325      4.4079    
  5.8269      7.7041      9.8839      12.036      13.738      14.617      14.472      13.340      20.136      15.987    
  12.154      8.7843      6.2244      4.5014      3.4285      2.7670      2.3312      2.0145      1.7799      1.6367    
  1.6072      1.6958      1.8847      2.1578      2.5338      3.0911      3.9860      5.4470      7.7041      10.838    
  14.622      18.678      23.207      26.784      27.348      24.557      50.169      33.156      21.138      14.599    
  9.9201      6.6528      4.6169      3.4285      2.7369      2.3047      2.0038      1.8007      1.7210      1.7870    
  1.9799      2.2718      2.6936      3.3754      4.5581      6.5956      9.8839      14.622      21.268      33.465    
  50.615      66.058      72.148      65.710      136.20      91.904      51.733      26.743      16.047      10.340    
  6.6528      4.5014      3.3096      2.6568      2.2705      2.0070      1.8591      1.8813      2.0707      2.3723    
  2.8148      3.5959      5.0572      7.6762      12.036      18.678      33.465      64.423      107.99      149.82    
  173.03      167.69      294.35      217.20      132.46      65.908      29.354      16.047      9.9201      6.2244    
  4.1686      3.1046      2.5754      2.2509      2.0215      1.9732      2.1493      2.4570      2.8896      3.7112    
  5.3778      8.4707      13.738      23.207      50.615      107.99      189.50      272.48      328.37      336.66    
  505.74      403.78      271.68      149.39      65.908      26.743      14.599      8.7843      5.4426      3.7089    
  2.9206      2.5165      2.2058      2.0646      2.2053      2.5155      2.9189      3.7069      5.4423      8.7903    
  14.617      26.784      66.058      149.82      272.48      404.75      506.42      544.26      720.89      613.06    
  447.01      271.68      132.46      51.733      21.138      12.154      7.1866      4.5292      3.3195      2.7806    
  2.4014      2.1647      2.2342      2.5297      2.9057      3.6033      5.2375      8.5477      14.472      27.348    
  72.148      173.03      328.37      506.42      658.02      737.61      880.61      788.84      613.06      403.78    
  217.20      91.904      33.156      15.987      9.2959      5.5684      3.7853      3.0244      2.5880      2.2786    
  2.2427      2.4873      2.8484      3.4388      4.8238      7.7984      13.340      24.557      65.710      167.69    
  336.66      544.26      737.61      861.73      880.63      861.73      737.60      544.24      336.65      167.68    
  65.707      24.554      13.340      7.8008      4.8238      3.4364      2.8484      2.4896      2.2427      2.2763    
  2.5880      3.0268      3.7853      5.5660      9.2956      15.988      33.155      91.904      217.21      403.80    
  613.08      788.86      861.73      880.73      788.97      613.11      403.80      217.25      91.926      33.118    
  15.958      9.3226      5.5899      3.7586      3.0055      2.6144      2.2943      2.2151      2.4741      2.8782    
  3.4503      4.7911      7.7881      13.378      24.568      65.658      167.64      336.64      544.21      737.54    
  737.60      788.97      737.60      598.97      414.52      236.64      107.22      39.945      17.880      10.502    
  6.2515      4.0640      3.1235      2.6824      2.3296      2.1609      2.3295      2.6822      3.1235      4.0641    
  6.2517      10.502      17.880      39.945      107.22      236.64      414.52      598.97      544.24      613.11    
  598.97      506.38      364.92      217.93      104.27      41.168      18.635      11.070      6.6532      4.2921    
  3.1992      2.6916      2.3329      2.1139      2.1766      2.4522      2.8134      3.4606      4.9226      7.8577    
  13.131      23.135      56.682      136.70      264.52      414.51      336.65      403.80      414.52      364.92    
  272.48      168.63      84.455      36.022      17.863      10.894      6.6905      4.3754      3.2210      2.6559    
  2.2984      2.0609      2.0317      2.2152      2.5181      2.9835      3.9070      5.7626      9.2121      15.112    
  27.386      63.988      136.66      236.60      167.68      217.25      236.64      217.93      168.63      107.97    
  57.044      27.518      15.909      10.023      6.3541      4.2777      3.1739      2.5897      2.2326      1.9914    
  1.9002      1.9971      2.2402      2.5987      3.1874      4.2941      6.3627      10.007      15.847      27.365    
  56.655      107.22      65.707      91.926      107.22      104.27      84.455      57.044      33.467      19.885    
  13.250      8.6653      5.7298      4.0159      3.0524      2.4987      2.1476      1.9067      1.7820      1.8118    
  1.9896      2.2744      2.6811      3.3446      4.5207      6.5869      10.010      15.115      23.153      39.989    
  24.554      33.118      39.945      41.168      36.022      27.518      19.885      14.631      10.347      7.1086    
  4.9587      3.6493      2.8694      2.3828      2.0516      1.8162      1.6773      1.6618      1.7769      1.9972    
  2.3045      2.7367      3.4097      4.5275      6.3752      9.2278      13.148      17.888      13.340      15.958    
  17.880      18.635      17.863      15.909      13.250      10.347      7.7039      5.6286      4.1826      3.2483    
  2.6501      2.2442      1.9472      1.7274      1.5876      1.5449      1.6083      1.7680      2.0064      2.3198    
  2.7390      3.3486      4.2958      5.7563      7.8392      10.471      7.8008      9.3226      10.502      11.070    
  10.894      10.023      8.6653      7.1086      5.6286      4.4071      3.5002      2.8655      2.4200      2.0905    
  1.8354      1.6414      1.5123      1.4580      1.4847      1.5909      1.7682      2.0070      2.3044      2.6770    
  3.1767      3.8910      4.9081      6.2479      4.8238      5.5899      6.2515      6.6532      6.6905      6.3541    
  5.7298      4.9587      4.1826      3.5002      2.9511      2.5265      2.1959      1.9315      1.7192      1.5574    
  1.4489      1.3971      1.4037      1.4688      1.5911      1.7681      1.9961      2.2717      2.5973      2.9892    
  3.4786      4.0937      3.4364      3.7586      4.0640      4.2921      4.3754      4.2777      4.0159      3.6493    
  3.2483      2.8655      2.5265      2.2352      1.9863      1.7758      1.6048      1.4776      1.3962      1.3590    
  1.3621      1.4037      1.4847      1.6083      1.7776      1.9934      2.2495      2.5320      2.8259      3.1255    
  2.8484      3.0055      3.1235      3.1992      3.2210      3.1739      3.0524      2.8694      2.6501      2.4200    
  2.1959      1.9863      1.7961      1.6318      1.5007      1.4089      1.3582      1.3441      1.3590      1.3970    
  1.4578      1.5448      1.6625      1.8132      1.9969      2.2085      2.4345      2.6545      2.4896      2.6144    
  2.6824      2.6916      2.6559      2.5897      2.4987      2.3828      2.2442      2.0905      1.9315      1.7758    
  1.6318      1.5089      1.4166      1.3612      1.3435      1.3582      1.3962      1.4488      1.5121      1.5872    
  1.6760      1.7777      1.8912      2.0193      2.1669      2.3304      2.2427      2.2943      2.3296      2.3329    
  2.2984      2.2326      2.1476      2.0516      1.9472      1.8354      1.7192      1.6048      1.5007      1.4166    
  1.3622      1.3437      1.3612      1.4090      1.4776      1.5574      1.6414      1.7274      1.8158      1.9061    
  1.9930      2.0694      2.1327      2.1882      2.2763      2.2151      2.1609      2.1139      2.0609      1.9914    
  1.9067      1.8162      1.7274      1.6414      1.5574      1.4776      1.4089      1.3612      1.3437      1.3622    
  1.4166      1.5007      1.6049      1.7194      1.8357      1.9478      2.0534      2.1525      2.2419      2.3100    
  2.3407      2.3259      2.5880      2.4741      2.3295      2.1766      2.0317      1.9002      1.7820      1.6773    
  1.5876      1.5123      1.4489      1.3962      1.3582      1.3435      1.3612      1.4166      1.5089      1.6318    
  1.7758      1.9316      2.0906      2.2444      2.3832      2.4987      2.5865      2.6452      2.6709      2.6545    
  3.0268      2.8782      2.6822      2.4522      2.2152      1.9971      1.8118      1.6618      1.5449      1.4580    
  1.3971      1.3590      1.3441      1.3582      1.4090      1.5007      1.6318      1.7962      1.9864      2.1960    
  2.4197      2.6492      2.8668      3.0464      3.1635      3.2091      3.1927      3.1299      3.7853      3.4503    
  3.1235      2.8134      2.5181      2.2402      1.9896      1.7769      1.6083      1.4847      1.4037      1.3621    
  1.3590      1.3962      1.4776      1.6049      1.7758      1.9864      2.2353      2.5266      2.8654      3.2479    
  3.6487      4.0160      4.2816      4.3877      4.3151      4.0938      5.5660      4.7911      4.0641      3.4606    
  2.9835      2.5987      2.2744      1.9972      1.7680      1.5909      1.4688      1.4037      1.3970      1.4488    
  1.5574      1.7194      1.9316      2.1960      2.5266      2.9513      3.5008      4.1838      4.9616      5.7362    
  6.3650      6.7027      6.6591      6.2434      9.2956      7.7881      6.2517      4.9226      3.9070      3.1874    
  2.6811      2.3045      2.0064      1.7682      1.5911      1.4847      1.4578      1.5121      1.6414      1.8357    
  2.0906      2.4197      2.8654      3.5008      4.4081      5.6291      7.1081      8.6636      10.018      10.879    
  11.044      10.470      15.988      13.378      10.502      7.8577      5.7626      4.2941      3.3446      2.7367    
  2.3198      2.0070      1.7681      1.6083      1.5448      1.5872      1.7274      1.9478      2.2444      2.6492    
  3.2479      4.1838      5.6291      7.7005      10.339      13.239      15.895      17.849      18.630      17.892    
  33.155      24.568      17.880      13.131      9.2121      6.3627      4.5207      3.4097      2.7390      2.3044    
  1.9961      1.7776      1.6625      1.6760      1.8158      2.0534      2.3832      2.8668      3.6487      4.9616    
  7.1081      10.339      14.624      19.885      27.527      36.041      41.201      39.990      91.904      65.658    
  39.945      23.135      15.112      10.007      6.5869      4.5275      3.3486      2.6770      2.2717      1.9934    
  1.8132      1.7777      1.9061      2.1525      2.4987      3.0464      4.0160      5.7362      8.6636      13.239    
  19.885      33.487      57.070      84.477      104.29      107.22      217.21      167.64      107.22      56.682    
  27.386      15.847      10.010      6.3752      4.2958      3.1767      2.5973      2.2495      1.9969      1.8912    
  1.9930      2.2419      2.5865      3.1635      4.2816      6.3650      10.018      15.895      27.527      57.070    
  107.98      168.61      217.92      236.62      403.80      336.64      236.64      136.70      63.988      27.365    
  15.115      9.2278      5.7563      3.8910      2.9892      2.5320      2.2085      2.0193      2.0694      2.3100    
  2.6452      3.2091      4.3877      6.7027      10.879      17.849      36.041      84.477      168.61      272.46    
  364.92      414.53      613.08      544.21      414.52      264.52      136.66      56.655      23.153      13.148    
  7.8392      4.9081      3.4786      2.8259      2.4345      2.1669      2.1327      2.3407      2.6709      3.1927    
  4.3151      6.6591      11.044      18.630      41.201      104.29      217.92      364.92      506.42      599.00    
  788.86      737.54      598.97      414.51      236.60      107.22      39.989      17.888      10.471      6.2479    
  4.0937      3.1255      2.6545      2.3304      2.1882      2.3259      2.6545      3.1299      4.0938      6.2434    
  10.470      17.892      39.990      107.22      236.62      414.53      599.00      737.55      720.92      737.63    
  658.02      506.40      328.36      173.02      72.144      27.344      14.472      8.5507      5.2374      3.6003    
  2.9057      2.5327      2.2342      2.1616      2.4014      2.7837      3.3195      4.5261      7.1865      12.157    
  21.135      51.726      132.46      271.69      447.03      613.08      737.63      789.00      737.61      598.97    
  414.51      236.63      107.21      39.942      17.879      10.503      6.2515      4.0631      3.1235      2.6832    
  2.3296      2.1600      2.3294      2.6831      3.1235      4.0633      6.2517      10.503      17.878      39.940    
  107.21      236.64      414.54      599.00      658.02      737.61      720.89      613.05      447.01      271.68    
  132.46      51.733      21.138      12.154      7.1864      4.5290      3.3196      2.7808      2.4015      2.1646    
  2.2341      2.5295      2.9057      3.6034      5.2376      8.5476      14.472      27.348      72.149      173.03    
  328.37      506.42      506.40      598.97      613.05      544.19      414.51      264.52      136.66      56.656    
  23.154      13.149      7.8391      4.9071      3.4786      2.8268      2.4346      2.1660      2.1325      2.3414    
  2.6709      3.1920      4.3151      6.6600      11.045      18.632      41.207      104.30      217.92      364.92    
  328.36      414.51      447.01      414.51      328.36      217.92      117.82      51.944      22.731      13.261    
  8.0517      5.0988      3.5717      2.8318      2.4248      2.1469      2.0340      2.1469      2.4248      2.8318    
  3.5717      5.0988      8.0516      13.261      22.731      51.944      117.82      217.92      173.02      236.63    
  271.68      264.52      217.92      149.79      84.456      40.213      20.127      12.465      7.7733      5.0465    
  3.5684      2.8009      2.3793      2.0982      1.9386      1.9683      2.1805      2.5088      3.0095      3.9554    
  5.7840      9.0862      14.556      24.586      51.945      104.30      72.144      107.21      132.46      136.66    
  117.82      84.456      50.620      27.531      16.735      10.946      7.0765      4.7620      3.4563      2.7313    
  2.3086      2.0251      1.8442      1.8146      1.9549      2.2158      2.5831      3.1785      4.2544      6.1811    
  9.4610      14.557      22.730      41.203      27.344      39.942      51.733      56.656      51.944      40.213    
  27.531      18.698      13.250      9.0371      6.1241      4.3163      3.2516      2.6198      2.2193      1.9397    
  1.7524      1.6857      1.7616      1.9575      2.2448      2.6522      3.2918      4.3664      6.1823      9.0873    
  13.258      18.626      14.472      17.879      21.138      23.154      22.731      20.127      16.735      13.250    
  9.8841      7.1076      5.1074      3.8037      2.9910      2.4718      2.1138      1.8503      1.6669      1.5802    
  1.6071      1.7427      1.9669      2.2711      2.6836      3.2913      4.2544      5.7845      8.0517      11.044    
  8.5507      10.503      12.154      13.149      13.261      12.465      10.946      9.0371      7.1076      5.4451    
  4.1826      3.3045      2.7129      2.3008      1.9943      1.7589      1.5897      1.4969      1.4919      1.5763    
  1.7411      1.9740      2.2707      2.6511      3.1772      3.9554      5.1011      6.6640      5.2374      6.2515    
  7.1864      7.8391      8.0517      7.7733      7.0765      6.1241      5.1074      4.1826      3.4325      2.8654    
  2.4439      2.1214      1.8660      1.6652      1.5193      1.4335      1.4128      1.4589      1.5699      1.7410    
  1.9669      2.2450      2.5831      3.0094      3.5717      4.3152      3.6003      4.0631      4.5290      4.9071    
  5.0988      5.0465      4.7620      4.3163      3.8037      3.3045      2.8654      2.4988      2.1960      1.9439    
  1.7355      1.5714      1.4546      1.3861      1.3647      1.3888      1.4588      1.5763      1.7431      1.9587    
  2.2171      2.5087      2.8294      3.1880      2.9057      3.1235      3.3196      3.4786      3.5717      3.5684    
  3.4563      3.2516      2.9910      2.7129      2.4439      2.1960      1.9725      1.7759      1.6108      1.4836    
  1.3984      1.3539      1.3446      1.3647      1.4127      1.4919      1.6071      1.7615      1.9549      2.1804    
  2.4247      2.6709      2.5327      2.6832      2.7808      2.8268      2.8318      2.8009      2.7313      2.6198    
  2.4718      2.3008      2.1214      1.9439      1.7759      1.6251      1.5007      1.4104      1.3581      1.3417    
  1.3539      1.3862      1.4336      1.4970      1.5798      1.6846      1.8133      1.9683      2.1492      2.3454    
  2.2342      2.3296      2.4015      2.4346      2.4248      2.3793      2.3086      2.2193      2.1138      1.9943    
  1.8660      1.7355      1.6108      1.5007      1.4148      1.3612      1.3432      1.3581      1.3984      1.4546    
  1.5193      1.5897      1.6669      1.7524      1.8443      1.9387      2.0341      2.1327      2.1616      2.1600    
  2.1646      2.1660      2.1469      2.0982      2.0251      1.9397      1.8503      1.7589      1.6652      1.5714    
  1.4836      1.4104      1.3612      1.3438      1.3612      1.4104      1.4836      1.5714      1.6651      1.7589    
  1.8507      1.9408      2.0264      2.0983      2.1446      2.1621      2.4014      2.3294      2.2341      2.1325    
  2.0340      1.9386      1.8442      1.7524      1.6669      1.5897      1.5193      1.4546      1.3984      1.3581    
  1.3432      1.3612      1.4148      1.5007      1.6108      1.7355      1.8660      1.9943      2.1137      2.2193    
  2.3086      2.3793      2.4247      2.4345      2.7837      2.6831      2.5295      2.3414      2.1469      1.9683    
  1.8146      1.6857      1.5802      1.4969      1.4335      1.3861      1.3539      1.3417      1.3581      1.4104    
  1.5007      1.6251      1.7759      1.9439      2.1215      2.3008      2.4713      2.6186      2.7301      2.8009    
  2.8340      2.8306      3.3195      3.1235      2.9057      2.6709      2.4248      2.1805      1.9549      1.7616    
  1.6071      1.4919      1.4128      1.3647      1.3446      1.3539      1.3984      1.4836      1.6108      1.7759    
  1.9725      2.1960      2.4439      2.7129      2.9910      3.2517      3.4563      3.5684      3.5717      3.4786    
  4.5261      4.0633      3.6034      3.1920      2.8318      2.5088      2.2158      1.9575      1.7427      1.5763    
  1.4589      1.3888      1.3647      1.3862      1.4546      1.5714      1.7355      1.9439      2.1960      2.4987    
  2.8653      3.3045      3.8041      4.3176      4.7635      5.0467      5.0966      4.9034      7.1865      6.2517    
  5.2376      4.3151      3.5717      3.0095      2.5831      2.2448      1.9669      1.7411      1.5699      1.4588    
  1.4127      1.4336      1.5193      1.6651      1.8660      2.1215      2.4439      2.8653      3.4324      4.1826    
  5.1077      6.1246      7.0773      7.7740      8.0520      7.8391      12.157      10.503      8.5476      6.6600    
  5.0988      3.9554      3.1785      2.6522      2.2711      1.9740      1.7410      1.5763      1.4919      1.4970    
  1.5897      1.7589      1.9943      2.3008      2.7129      3.3045      4.1826      5.4455      7.1082      9.0376    
  10.946      12.466      13.263      13.152      21.135      17.878      14.472      11.045      8.0516      5.7840    
  4.2544      3.2918      2.6836      2.2707      1.9669      1.7431      1.6071      1.5798      1.6669      1.8507    
  2.1137      2.4713      2.9910      3.8041      5.1077      7.1082      9.8862      13.253      16.736      20.126    
  22.728      23.151      51.726      39.940      27.348      18.632      13.261      9.0862      6.1811      4.3664    
  3.2913      2.6511      2.2450      1.9587      1.7615      1.6846      1.7524      1.9408      2.2193      2.6186    
  3.2517      4.3176      6.1246      9.0376      13.253      18.702      27.530      40.206      51.934      56.647    
  132.46      107.21      72.149      41.207      22.731      14.556      9.4610      6.1823      4.2544      3.1772    
  2.5831      2.2171      1.9549      1.8133      1.8443      2.0264      2.3086      2.7301      3.4563      4.7635    
  7.0773      10.946      16.736      27.530      50.613      84.443      117.81      136.65      271.69      236.64    
  173.03      104.30      51.944      24.586      14.557      9.0873      5.7845      3.9554      3.0094      2.5087    
  2.1804      1.9683      1.9387      2.0983      2.3793      2.8009      3.5684      5.0467      7.7740      12.466    
  20.126      40.206      84.443      149.77      217.91      264.52      447.03      414.54      328.37      217.92    
  117.82      51.945      22.730      13.258      8.0517      5.1011      3.5717      2.8294      2.4247      2.1492    
  2.0341      2.1446      2.4247      2.8340      3.5717      5.0966      8.0520      13.263      22.728      51.934    
  117.81      217.91      328.35      414.52      613.08      599.00      506.42      364.92      217.92      104.30    
  41.203      18.626      11.044      6.6640      4.3152      3.1880      2.6709      2.3454      2.1327      2.1621    
  2.4345      2.8306      3.4786      4.9034      7.8391      13.152      23.151      56.647      136.65      264.52    
  414.52      544.21      505.74      544.26      506.42      404.74      272.48      149.82      66.058      26.782    
  14.618      8.7924      5.4423      3.7049      2.9189      2.5174      2.2053      2.0627      2.2058      2.5185    
  2.9206      3.7069      5.4428      8.7865      14.598      26.738      65.902      149.38      271.67      403.77    
  544.26      613.14      598.99      506.39      364.92      217.93      104.27      41.166      18.635      11.069    
  6.6532      4.2921      3.1992      2.6916      2.3329      2.1139      2.1766      2.4522      2.8134      3.4606    
  4.9228      7.8576      13.130      23.130      56.674      136.69      264.52      414.52      506.42      598.99    
  613.08      544.21      414.52      264.52      136.66      56.655      23.153      13.148      7.8391      4.9080    
  3.4787      2.8260      2.4346      2.1668      2.1326      2.3406      2.6709      3.1929      4.3152      6.6591    
  11.044      18.630      41.202      104.29      217.92      364.92      404.74      506.39      544.21      505.73    
  403.81      271.68      149.35      65.899      26.767      14.604      8.7625      5.4399      3.7300      2.9225    