unknown system                          
   3.61000000000000     
     0.500000    0.500000   -0.500000
    -0.500000    0.500000    0.500000
     0.500000   -0.500000    0.500000
   Cu
     1
Direct
  0.000000  0.000000  0.000000
 
   28   28   28
 0.93941990907E+03 0.88060889045E+03 0.72088880319E+03 0.50573691432E+03 0.29435165125E+03
 0.13620311778E+03 0.50168963545E+02 0.20136135801E+02 0.11482311818E+02 0.67255571762E+01
 0.43062402055E+01 0.32429833811E+01 0.27419984928E+01 0.23951298146E+01 0.22434833700E+01
 0.23951298146E+01 0.27419984928E+01 0.32429833811E+01 0.43062402055E+01 0.67255571762E+01
 0.11482311818E+02 0.20136135801E+02 0.50168963545E+02 0.13620311778E+03 0.29435165125E+03
 0.50573691432E+03 0.72088880319E+03 0.88060889045E+03 0.88060889045E+03 0.86172903035E+03
 0.73761209719E+03 0.54425938689E+03 0.33666226643E+03 0.16769172404E+03 0.65710181717E+02
 0.24557247082E+02 0.13340127270E+02 0.77984137032E+01 0.48237778680E+01 0.34387668082E+01
 0.28484354736E+01 0.24872517685E+01 0.22427470372E+01 0.22786292588E+01 0.25880142142E+01
 0.30244177899E+01 0.37853160976E+01 0.55684001288E+01 0.92958603572E+01 0.15986519403E+02
 0.33155816728E+02 0.91904453569E+02 0.21720172687E+03 0.40377827176E+03 0.61305703139E+03
 0.78883920192E+03 0.72088880319E+03 0.73761209719E+03 0.65801890260E+03 0.50641839858E+03
 0.32837058959E+03 0.17303065119E+03 0.72148441672E+02 0.27348088140E+02 0.14471839140E+02
 0.85476622569E+01 0.52374546038E+01 0.36032917903E+01 0.29057227099E+01 0.25296555336E+01
 0.22342155848E+01 0.21646635076E+01 0.24014277888E+01 0.27806222338E+01 0.33195321715E+01
 0.45291750360E+01 0.71865689054E+01 0.12154408561E+02 0.21137672802E+02 0.51733075442E+02
 0.13246349335E+03 0.27167890662E+03 0.44701251352E+03 0.61305703139E+03 0.50573691432E+03
 0.54425938689E+03 0.50641839858E+03 0.40474814081E+03 0.27247972917E+03 0.14981995255E+03
 0.66057510370E+02 0.26783512921E+02 0.14617169550E+02 0.87902690874E+01 0.54422729704E+01
 0.37068769440E+01 0.29188723363E+01 0.25154571049E+01 0.22052955832E+01 0.20646463788E+01
 0.22057663278E+01 0.25165482852E+01 0.29206334275E+01 0.37088750106E+01 0.54426015691E+01
 0.87842960787E+01 0.14599086901E+02 0.26742963441E+02 0.65907698724E+02 0.14938837181E+03
 0.27167890662E+03 0.40377827176E+03 0.29435165125E+03 0.33666226643E+03 0.32837058959E+03
 0.27247972917E+03 0.18950363401E+03 0.10798676593E+03 0.50615436925E+02 0.23206757920E+02
 0.13738394957E+02 0.84707393801E+01 0.53778351865E+01 0.37111976745E+01 0.28896372457E+01
 0.24570242015E+01 0.21492732449E+01 0.19732464435E+01 0.20215056789E+01 0.22509299599E+01
 0.25753563668E+01 0.31045743216E+01 0.41685746669E+01 0.62244015667E+01 0.99201256036E+01
 0.16046900173E+02 0.29353605799E+02 0.65907698724E+02 0.13246349335E+03 0.21720172687E+03
 0.13620311778E+03 0.16769172404E+03 0.17303065119E+03 0.14981995255E+03 0.10798676593E+03
 0.64423361149E+02 0.33464819118E+02 0.18678209937E+02 0.12035846213E+02 0.76762495716E+01
 0.50571875796E+01 0.35959424544E+01 0.28148276858E+01 0.23722588650E+01 0.20706870153E+01
 0.18812701877E+01 0.18590782423E+01 0.20070421963E+01 0.22705441368E+01 0.26567882198E+01
 0.33096079636E+01 0.45014465869E+01 0.66527872070E+01 0.10339514004E+02 0.16046900173E+02
 0.26742963441E+02 0.51733075442E+02 0.91904453569E+02 0.50168963545E+02 0.65710181717E+02
 0.72148441672E+02 0.66057510370E+02 0.50615436925E+02 0.33464819118E+02 0.21268386893E+02
 0.14621963600E+02 0.98838998687E+01 0.65955651172E+01 0.45581307797E+01 0.33754437476E+01
 0.26935570606E+01 0.22717897429E+01 0.19799317212E+01 0.17870486969E+01 0.17209950155E+01
 0.18006571559E+01 0.20038043268E+01 0.23047330647E+01 0.27369423872E+01 0.34284675302E+01
 0.46168843620E+01 0.66527872070E+01 0.99201256036E+01 0.14599086901E+02 0.21137672802E+02
 0.33155816728E+02 0.20136135801E+02 0.24557247082E+02 0.27348088140E+02 0.26783512921E+02
 0.23206757920E+02 0.18678209937E+02 0.14621963600E+02 0.10837635813E+02 0.77040867744E+01
 0.54469823567E+01 0.39859974002E+01 0.30911166203E+01 0.25337985319E+01 0.21578140294E+01
 0.18846877966E+01 0.16958346539E+01 0.16071686510E+01 0.16366799982E+01 0.17799189577E+01
 0.20145298372E+01 0.23311652576E+01 0.27670038952E+01 0.34284675302E+01 0.45014465869E+01
 0.62244015667E+01 0.87842960787E+01 0.12154408561E+02 0.15986519403E+02 0.11482311818E+02
 0.13340127270E+02 0.14471839140E+02 0.14617169550E+02 0.13738394957E+02 0.12035846213E+02
 0.98838998687E+01 0.77040867744E+01 0.58269304084E+01 0.44079235940E+01 0.34324557733E+01
 0.27885169745E+01 0.23507828031E+01 0.20308858728E+01 0.17870418272E+01 0.16120731243E+01
 0.15167137285E+01 0.15133614820E+01 0.16038000711E+01 0.17773058617E+01 0.20202755109E+01
 0.23311652576E+01 0.27369423872E+01 0.33096079636E+01 0.41685746669E+01 0.54426015691E+01
 0.71865689054E+01 0.92958603572E+01 0.67255571762E+01 0.77984137032E+01 0.85476622569E+01
 0.87902690874E+01 0.84707393801E+01 0.76762495716E+01 0.65955651172E+01 0.54469823567E+01
 0.44079235940E+01 0.35727715806E+01 0.29510645253E+01 0.24988026960E+01 0.21599778725E+01
 0.18949107148E+01 0.16869964834E+01 0.15356472576E+01 0.14469063106E+01 0.14267911959E+01
 0.14774426152E+01 0.15961922551E+01 0.17773058617E+01 0.20145298372E+01 0.23047330647E+01
 0.26567882198E+01 0.31045743216E+01 0.37088750106E+01 0.45291750360E+01 0.55684001288E+01
 0.43062402055E+01 0.48237778680E+01 0.52374546038E+01 0.54422729704E+01 0.53778351865E+01
 0.50571875796E+01 0.45581307797E+01 0.39859974002E+01 0.34324557733E+01 0.29510645253E+01
 0.25557097512E+01 0.22352617296E+01 0.19724983312E+01 0.17568789549E+01 0.15869304672E+01
 0.14654230745E+01 0.13942017132E+01 0.13729255144E+01 0.14006951043E+01 0.14774426152E+01
 0.16038000711E+01 0.17799189577E+01 0.20038043268E+01 0.22705441368E+01 0.25753563668E+01
 0.29206334275E+01 0.33195321715E+01 0.37853160976E+01 0.32429833811E+01 0.34387668082E+01
 0.36032917903E+01 0.37068769440E+01 0.37111976745E+01 0.35959424544E+01 0.33754437476E+01
 0.30911166203E+01 0.27885169745E+01 0.24988026960E+01 0.22352617296E+01 0.20007117309E+01
 0.17961484893E+01 0.16250960858E+01 0.14931258679E+01 0.14043565538E+01 0.13581611016E+01
 0.13494777436E+01 0.13729255144E+01 0.14267911959E+01 0.15133614820E+01 0.16366799982E+01
 0.18006571559E+01 0.20070421963E+01 0.22509299599E+01 0.25165482852E+01 0.27806222338E+01
 0.30244177899E+01 0.27419984928E+01 0.28484354736E+01 0.29057227099E+01 0.29188723363E+01
 0.28896372457E+01 0.28148276858E+01 0.26935570606E+01 0.25337985319E+01 0.23507828031E+01
 0.21599778725E+01 0.19724983312E+01 0.17961484893E+01 0.16386841041E+01 0.15089160129E+01
 0.14148165486E+01 0.13604706873E+01 0.13440007164E+01 0.13581611016E+01 0.13942017132E+01
 0.14469063106E+01 0.15167137285E+01 0.16071686510E+01 0.17209950155E+01 0.18590782423E+01
 0.20215056789E+01 0.22057663278E+01 0.24014277888E+01 0.25880142142E+01 0.23951298146E+01
 0.24872517685E+01 0.25296555336E+01 0.25154571049E+01 0.24570242015E+01 0.23722588650E+01
 0.22717897429E+01 0.21578140294E+01 0.20308858728E+01 0.18949107148E+01 0.17568789549E+01
 0.16250960858E+01 0.15089160129E+01 0.14184510187E+01 0.13621965033E+01 0.13437782929E+01
 0.13604706873E+01 0.14043565538E+01 0.14654230745E+01 0.15356472576E+01 0.16120731243E+01
 0.16958346539E+01 0.17870486969E+01 0.18812701877E+01 0.19732464435E+01 0.20646463788E+01
 0.21646635076E+01 0.22786292588E+01 0.22434833700E+01 0.22427470372E+01 0.22342155848E+01
 0.22052955832E+01 0.21492732449E+01 0.20706870153E+01 0.19799317212E+01 0.18846877966E+01
 0.17870418272E+01 0.16869964834E+01 0.15869304672E+01 0.14931258679E+01 0.14148165486E+01
 0.13621965033E+01 0.13435704159E+01 0.13621965033E+01 0.14148165486E+01 0.14931258679E+01
 0.15869304672E+01 0.16869964834E+01 0.17870418272E+01 0.18846877966E+01 0.19799317212E+01
 0.20706870153E+01 0.21492732449E+01 0.22052955832E+01 0.22342155848E+01 0.22427470372E+01
 0.23951298146E+01 0.22786292588E+01 0.21646635076E+01 0.20646463788E+01 0.19732464435E+01
 0.18812701877E+01 0.17870486969E+01 0.16958346539E+01 0.16120731243E+01 0.15356472576E+01
 0.14654230745E+01 0.14043565538E+01 0.13604706873E+01 0.13437782929E+01 0.13621965033E+01
 0.14184510187E+01 0.15089160129E+01 0.16250960858E+01 0.17568789549E+01 0.18949107148E+01
 0.20308858728E+01 0.21578140294E+01 0.22717897429E+01 0.23722588650E+01 0.24570242015E+01
 0.25154571049E+01 0.25296555336E+01 0.24872517685E+01 0.27419984928E+01 0.25880142142E+01
 0.24014277888E+01 0.22057663278E+01 0.20215056789E+01 0.18590782423E+01 0.17209950155E+01
 0.16071686510E+01 0.15167137285E+01 0.14469063106E+01 0.13942017132E+01 0.13581611016E+01
 0.13440007164E+01 0.13604706873E+01 0.14148165486E+01 0.15089160129E+01 0.16386841041E+01
 0.17961484893E+01 0.19724983312E+01 0.21599778725E+01 0.23507828031E+01 0.25337985319E+01
 0.26935570606E+01 0.28148276858E+01 0.28896372457E+01 0.29188723363E+01 0.29057227099E+01
 0.28484354736E+01 0.32429833811E+01 0.30244177899E+01 0.27806222338E+01 0.25165482852E+01
 0.22509299599E+01 0.20070421963E+01 0.18006571559E+01 0.16366799982E+01 0.15133614820E+01
 0.14267911959E+01 0.13729255144E+01 0.13494777436E+01 0.13581611016E+01 0.14043565538E+01
 0.14931258679E+01 0.16250960858E+01 0.17961484893E+01 0.20007117309E+01 0.22352617296E+01
 0.24988026960E+01 0.27885169745E+01 0.30911166203E+01 0.33754437476E+01 0.35959424544E+01
 0.37111976745E+01 0.37068769440E+01 0.36032917903E+01 0.34387668082E+01 0.43062402055E+01
 0.37853160976E+01 0.33195321715E+01 0.29206334275E+01 0.25753563668E+01 0.22705441368E+01
 0.20038043268E+01 0.17799189577E+01 0.16038000711E+01 0.14774426152E+01 0.14006951043E+01
 0.13729255144E+01 0.13942017132E+01 0.14654230745E+01 0.15869304672E+01 0.17568789549E+01
 0.19724983312E+01 0.22352617296E+01 0.25557097512E+01 0.29510645253E+01 0.34324557733E+01
 0.39859974002E+01 0.45581307797E+01 0.50571875796E+01 0.53778351865E+01 0.54422729704E+01
 0.52374546038E+01 0.48237778680E+01 0.67255571762E+01 0.55684001288E+01 0.45291750360E+01
 0.37088750106E+01 0.31045743216E+01 0.26567882198E+01 0.23047330647E+01 0.20145298372E+01
 0.17773058617E+01 0.15961922551E+01 0.14774426152E+01 0.14267911959E+01 0.14469063106E+01
 0.15356472576E+01 0.16869964834E+01 0.18949107148E+01 0.21599778725E+01 0.24988026960E+01
 0.29510645253E+01 0.35727715806E+01 0.44079235940E+01 0.54469823567E+01 0.65955651172E+01
 0.76762495716E+01 0.84707393801E+01 0.87902690874E+01 0.85476622569E+01 0.77984137032E+01
 0.11482311818E+02 0.92958603572E+01 0.71865689054E+01 0.54426015691E+01 0.41685746669E+01
 0.33096079636E+01 0.27369423872E+01 0.23311652576E+01 0.20202755109E+01 0.17773058617E+01
 0.16038000711E+01 0.15133614820E+01 0.15167137285E+01 0.16120731243E+01 0.17870418272E+01
 0.20308858728E+01 0.23507828031E+01 0.27885169745E+01 0.34324557733E+01 0.44079235940E+01
 0.58269304084E+01 0.77040867744E+01 0.98838998687E+01 0.12035846213E+02 0.13738394957E+02
 0.14617169550E+02 0.14471839140E+02 0.13340127270E+02 0.20136135801E+02 0.15986519403E+02
 0.12154408561E+02 0.87842960787E+01 0.62244015667E+01 0.45014465869E+01 0.34284675302E+01
 0.27670038952E+01 0.23311652576E+01 0.20145298372E+01 0.17799189577E+01 0.16366799982E+01
 0.16071686510E+01 0.16958346539E+01 0.18846877966E+01 0.21578140294E+01 0.25337985319E+01
 0.30911166203E+01 0.39859974002E+01 0.54469823567E+01 0.77040867744E+01 0.10837635813E+02
 0.14621963600E+02 0.18678209937E+02 0.23206757920E+02 0.26783512921E+02 0.27348088140E+02
 0.24557247082E+02 0.50168963545E+02 0.33155816728E+02 0.21137672802E+02 0.14599086901E+02
 0.99201256036E+01 0.66527872070E+01 0.46168843620E+01 0.34284675302E+01 0.27369423872E+01
 0.23047330647E+01 0.20038043268E+01 0.18006571559E+01 0.17209950155E+01 0.17870486969E+01
 0.19799317212E+01 0.22717897429E+01 0.26935570606E+01 0.33754437476E+01 0.45581307797E+01
 0.65955651172E+01 0.98838998687E+01 0.14621963600E+02 0.21268386893E+02 0.33464819118E+02
 0.50615436925E+02 0.66057510370E+02 0.72148441672E+02 0.65710181717E+02 0.13620311778E+03
 0.91904453569E+02 0.51733075442E+02 0.26742963441E+02 0.16046900173E+02 0.10339514004E+02
 0.66527872070E+01 0.45014465869E+01 0.33096079636E+01 0.26567882198E+01 0.22705441368E+01
 0.20070421963E+01 0.18590782423E+01 0.18812701877E+01 0.20706870153E+01 0.23722588650E+01
 0.28148276858E+01 0.35959424544E+01 0.50571875796E+01 0.76762495716E+01 0.12035846213E+02
 0.18678209937E+02 0.33464819118E+02 0.64423361149E+02 0.10798676593E+03 0.14981995255E+03
 0.17303065119E+03 0.16769172404E+03 0.29435165125E+03 0.21720172687E+03 0.13246349335E+03
 0.65907698724E+02 0.29353605799E+02 0.16046900173E+02 0.99201256036E+01 0.62244015667E+01
 0.41685746669E+01 0.31045743216E+01 0.25753563668E+01 0.22509299599E+01 0.20215056789E+01
 0.19732464435E+01 0.21492732449E+01 0.24570242015E+01 0.28896372457E+01 0.37111976745E+01
 0.53778351865E+01 0.84707393801E+01 0.13738394957E+02 0.23206757920E+02 0.50615436925E+02
 0.10798676593E+03 0.18950363401E+03 0.27247972917E+03 0.32837058959E+03 0.33666226643E+03
 0.50573691432E+03 0.40377827176E+03 0.27167890662E+03 0.14938837181E+03 0.65907698724E+02
 0.26742963441E+02 0.14599086901E+02 0.87842960787E+01 0.54426015691E+01 0.37088750106E+01
 0.29206334275E+01 0.25165482852E+01 0.22057663278E+01 0.20646463788E+01 0.22052955832E+01
 0.25154571049E+01 0.29188723363E+01 0.37068769440E+01 0.54422729704E+01 0.87902690874E+01
 0.14617169550E+02 0.26783512921E+02 0.66057510370E+02 0.14981995255E+03 0.27247972917E+03
 0.40474814081E+03 0.50641839858E+03 0.54425938689E+03 0.72088880319E+03 0.61305703139E+03
 0.44701251352E+03 0.27167890662E+03 0.13246349335E+03 0.51733075442E+02 0.21137672802E+02
 0.12154408561E+02 0.71865689054E+01 0.45291750360E+01 0.33195321715E+01 0.27806222338E+01
 0.24014277888E+01 0.21646635076E+01 0.22342155848E+01 0.25296555336E+01 0.29057227099E+01
 0.36032917903E+01 0.52374546038E+01 0.85476622569E+01 0.14471839140E+02 0.27348088140E+02
 0.72148441672E+02 0.17303065119E+03 0.32837058959E+03 0.50641839858E+03 0.65801890260E+03
 0.73761209719E+03 0.88060889045E+03 0.78883920192E+03 0.61305703139E+03 0.40377827176E+03
 0.21720172687E+03 0.91904453569E+02 0.33155816728E+02 0.15986519403E+02 0.92958603572E+01
 0.55684001288E+01 0.37853160976E+01 0.30244177899E+01 0.25880142142E+01 0.22786292588E+01
 0.22427470372E+01 0.24872517685E+01 0.28484354736E+01 0.34387668082E+01 0.48237778680E+01
 0.77984137032E+01 0.13340127270E+02 0.24557247082E+02 0.65710181717E+02 0.16769172404E+03
 0.33666226643E+03 0.54425938689E+03 0.73761209719E+03 0.86172903035E+03 0.88062655431E+03
 0.86173346540E+03 0.73759972986E+03 0.54423824828E+03 0.33664599556E+03 0.16768473840E+03
 0.65706892643E+02 0.24554495819E+02 0.13340285979E+02 0.78007886755E+01 0.48237549808E+01
 0.34364208569E+01 0.28484348541E+01 0.24895943291E+01 0.22427489431E+01 0.22762775806E+01
 0.25880026684E+01 0.30267669425E+01 0.37853257157E+01 0.55660068430E+01 0.92956253542E+01
 0.15988334747E+02 0.33155443845E+02 0.91903856322E+02 0.21720924844E+03 0.40379719861E+03
 0.61308189813E+03 0.78886317385E+03 0.86173346540E+03 0.88072939513E+03 0.78896828178E+03
 0.61311021217E+03 0.40380487643E+03 0.21725116219E+03 0.91925971507E+02 0.33117539392E+02
 0.15957940318E+02 0.93226098863E+01 0.55899399501E+01 0.37585684965E+01 0.30055031549E+01
 0.26143759147E+01 0.22943204578E+01 0.22151397375E+01 0.24740635724E+01 0.28782478754E+01
 0.34503025642E+01 0.47911133288E+01 0.77880702606E+01 0.13377722992E+02 0.24568204965E+02
 0.65657544549E+02 0.16763972583E+03 0.33664195716E+03 0.54421345763E+03 0.73753910962E+03
 0.73759972986E+03 0.78896828178E+03 0.73759858449E+03 0.59897277603E+03 0.41452017028E+03
 0.23663615979E+03 0.10721585806E+03 0.39945110781E+02 0.17879877128E+02 0.10502023652E+02
 0.62514904040E+01 0.40639518324E+01 0.31235161106E+01 0.26823630805E+01 0.23295946005E+01
 0.21608981895E+01 0.23294514935E+01 0.26822156575E+01 0.31235136058E+01 0.40641107487E+01
 0.62516694839E+01 0.10502054866E+02 0.17879756626E+02 0.39945085449E+02 0.10721630946E+03
 0.23663732986E+03 0.41452192587E+03 0.59897457829E+03 0.54423824828E+03 0.61311021217E+03
 0.59897277603E+03 0.50637593299E+03 0.36491625387E+03 0.21792984631E+03 0.10427207590E+03
 0.41168217968E+02 0.18635293569E+02 0.11069503869E+02 0.66531692938E+01 0.42921096496E+01
 0.31992383458E+01 0.26915949080E+01 0.23329470211E+01 0.21138620840E+01 0.21766225810E+01
 0.24522300070E+01 0.28133846900E+01 0.34605783315E+01 0.49226307528E+01 0.78577286992E+01
 0.13131499356E+02 0.23134925781E+02 0.56681656350E+02 0.13669584571E+03 0.26452082772E+03
 0.41451063093E+03 0.33664599556E+03 0.40380487643E+03 0.41452017028E+03 0.36491625387E+03
 0.27247857108E+03 0.16862520164E+03 0.84455129074E+02 0.36022180022E+02 0.17862885503E+02
 0.10893632452E+02 0.66904778909E+01 0.43754145918E+01 0.32210459181E+01 0.26558937839E+01
 0.22983936895E+01 0.20609290628E+01 0.20317241729E+01 0.22152102903E+01 0.25180686004E+01
 0.29834902028E+01 0.39070335055E+01 0.57625718782E+01 0.92121488285E+01 0.15112128030E+02
 0.27385731498E+02 0.63987774476E+02 0.13665687736E+03 0.23660478680E+03 0.16768473840E+03
 0.21725116219E+03 0.23663615979E+03 0.21792984631E+03 0.16862520164E+03 0.10796882805E+03
 0.57043880705E+02 0.27517760646E+02 0.15908941155E+02 0.10023434322E+02 0.63540804345E+01
 0.42776894539E+01 0.31738507222E+01 0.25897294982E+01 0.22326319619E+01 0.19913847312E+01
 0.19002382390E+01 0.19970864841E+01 0.22402385260E+01 0.25987454962E+01 0.31873615792E+01
 0.42941373695E+01 0.63627472589E+01 0.10006895182E+02 0.15846601388E+02 0.27365307705E+02
 0.56654722470E+02 0.10722412833E+03 0.65706892643E+02 0.91925971507E+02 0.10721585806E+03
 0.10427207590E+03 0.84455129074E+02 0.57043880705E+02 0.33467006320E+02 0.19884615681E+02
 0.13249708594E+02 0.86653283405E+01 0.57297746933E+01 0.40158820245E+01 0.30524071371E+01
 0.24987243238E+01 0.21475875816E+01 0.19066714516E+01 0.17819796331E+01 0.18117733092E+01
 0.19896160840E+01 0.22743635675E+01 0.26810575892E+01 0.33445852344E+01 0.45206650728E+01
 0.65869249989E+01 0.10009844362E+02 0.15114927348E+02 0.23152964615E+02 0.39989460320E+02
 0.24554495819E+02 0.33117539392E+02 0.39945110781E+02 0.41168217968E+02 0.36022180022E+02
 0.27517760646E+02 0.19884615681E+02 0.14631313500E+02 0.10346861422E+02 0.71085530546E+01
 0.49587119327E+01 0.36493381884E+01 0.28693532073E+01 0.23827812319E+01 0.20515613178E+01
 0.18162087262E+01 0.16772796109E+01 0.16617883654E+01 0.17769015472E+01 0.19972277003E+01
 0.23045358474E+01 0.27367069739E+01 0.34097416535E+01 0.45275199144E+01 0.63752068740E+01
 0.92278133479E+01 0.13148292729E+02 0.17888439710E+02 0.13340285979E+02 0.15957940318E+02
 0.17879877128E+02 0.18635293569E+02 0.17862885503E+02 0.15908941155E+02 0.13249708594E+02
 0.10346861422E+02 0.77038715728E+01 0.56286380661E+01 0.41825688513E+01 0.32482640102E+01
 0.26500707951E+01 0.22441855033E+01 0.19471944546E+01 0.17273640818E+01 0.15875580613E+01
 0.15448958001E+01 0.16083038293E+01 0.17680298686E+01 0.20064340046E+01 0.23198129483E+01
 0.27390221198E+01 0.33486464099E+01 0.42958085645E+01 0.57563146071E+01 0.78392167738E+01
 0.10470769923E+02 0.78007886755E+01 0.93226098863E+01 0.10502023652E+02 0.11069503869E+02
 0.10893632452E+02 0.10023434322E+02 0.86653283405E+01 0.71085530546E+01 0.56286380661E+01
 0.44070517412E+01 0.35001704018E+01 0.28655379840E+01 0.24200073113E+01 0.20905160020E+01
 0.18353896671E+01 0.16413911894E+01 0.15123397805E+01 0.14579566222E+01 0.14846960642E+01
 0.15908942346E+01 0.17681717407E+01 0.20069611548E+01 0.23043707514E+01 0.26770161936E+01
 0.31766503450E+01 0.38909928166E+01 0.49081026303E+01 0.62478908090E+01 0.48237549808E+01
 0.55899399501E+01 0.62514904040E+01 0.66531692938E+01 0.66904778909E+01 0.63540804345E+01
 0.57297746933E+01 0.49587119327E+01 0.41825688513E+01 0.35001704018E+01 0.29510671735E+01
 0.25265339658E+01 0.21959486985E+01 0.19314589377E+01 0.17192264691E+01 0.15573656638E+01
 0.14489296595E+01 0.13970993384E+01 0.14036596861E+01 0.14687792840E+01 0.15911132668E+01
 0.17680913906E+01 0.19960921120E+01 0.22717447658E+01 0.25973384132E+01 0.29891705168E+01
 0.34786230298E+01 0.40937494530E+01 0.34364208569E+01 0.37585684965E+01 0.40639518324E+01
 0.42921096496E+01 0.43754145918E+01 0.42776894539E+01 0.40158820245E+01 0.36493381884E+01
 0.32482640102E+01 0.28655379840E+01 0.25265339658E+01 0.22351681824E+01 0.19862591229E+01
 0.17757661108E+01 0.16048314941E+01 0.14775552707E+01 0.13962022510E+01 0.13589647023E+01
 0.13621353838E+01 0.14036996742E+01 0.14847082529E+01 0.16082554034E+01 0.17776246860E+01
 0.19934179970E+01 0.22495323837E+01 0.25320422733E+01 0.28258695654E+01 0.31255170348E+01
 0.28484348541E+01 0.30055031549E+01 0.31235161106E+01 0.31992383458E+01 0.32210459181E+01
 0.31738507222E+01 0.30524071371E+01 0.28693532073E+01 0.26500707951E+01 0.24200073113E+01
 0.21959486985E+01 0.19862591229E+01 0.17961475852E+01 0.16317872751E+01 0.15006535951E+01
 0.14089278091E+01 0.13581851976E+01 0.13440860888E+01 0.13589704136E+01 0.13970305031E+01
 0.14577509019E+01 0.15448068463E+01 0.16624542969E+01 0.18132021273E+01 0.19969123534E+01
 0.22084792581E+01 0.24345485475E+01 0.26545146323E+01 0.24895943291E+01 0.26143759147E+01
 0.26823630805E+01 0.26915949080E+01 0.26558937839E+01 0.25897294982E+01 0.24987243238E+01
 0.23827812319E+01 0.22441855033E+01 0.20905160020E+01 0.19314589377E+01 0.17757661108E+01
 0.16317872751E+01 0.15089184329E+01 0.14165889641E+01 0.13611863043E+01 0.13434867284E+01
 0.13582189783E+01 0.13962201182E+01 0.14488330298E+01 0.15121397452E+01 0.15872344830E+01
 0.16760214416E+01 0.17777459316E+01 0.18911993226E+01 0.20192707484E+01 0.21668626824E+01
 0.23303546620E+01 0.22427489431E+01 0.22943204578E+01 0.23295946005E+01 0.23329470211E+01
 0.22983936895E+01 0.22326319619E+01 0.21475875816E+01 0.20515613178E+01 0.19471944546E+01
 0.18353896671E+01 0.17192264691E+01 0.16048314941E+01 0.15006535951E+01 0.14165889641E+01
 0.13622085484E+01 0.13436810696E+01 0.13612058537E+01 0.14089828224E+01 0.14776061839E+01
 0.15573875416E+01 0.16414435142E+01 0.17273669997E+01 0.18158086804E+01 0.19061040116E+01
 0.19930390932E+01 0.20693794772E+01 0.21326707829E+01 0.21882091839E+01 0.22762775806E+01
 0.22151397375E+01 0.21608981895E+01 0.21138620840E+01 0.20609290628E+01 0.19913847312E+01
 0.19066714516E+01 0.18162087262E+01 0.17273640818E+01 0.16413911894E+01 0.15573656638E+01
 0.14775552707E+01 0.14089278091E+01 0.13611863043E+01 0.13436810696E+01 0.13622152092E+01
 0.14166110459E+01 0.15006878137E+01 0.16048957507E+01 0.17193818470E+01 0.18356820903E+01
 0.19478224769E+01 0.20534475873E+01 0.21525451882E+01 0.22419089810E+01 0.23100169802E+01
 0.23406664659E+01 0.23259292714E+01 0.25880026684E+01 0.24740635724E+01 0.23294514935E+01
 0.21766225810E+01 0.20317241729E+01 0.19002382390E+01 0.17819796331E+01 0.16772796109E+01
 0.15875580613E+01 0.15123397805E+01 0.14489296595E+01 0.13962022510E+01 0.13581851976E+01
 0.13434867284E+01 0.13612058537E+01 0.14166110459E+01 0.15089300540E+01 0.16318033678E+01
 0.17758451478E+01 0.19316053116E+01 0.20906468564E+01 0.22443503437E+01 0.23831544384E+01
 0.24986673107E+01 0.25865256769E+01 0.26452343006E+01 0.26708786683E+01 0.26545131383E+01
 0.30267669425E+01 0.28782478754E+01 0.26822156575E+01 0.24522300070E+01 0.22152102903E+01
 0.19970864841E+01 0.18117733092E+01 0.16617883654E+01 0.15448958001E+01 0.14579566222E+01
 0.13970993384E+01 0.13589647023E+01 0.13440860888E+01 0.13582189783E+01 0.14089828224E+01
 0.15006878137E+01 0.16318033678E+01 0.17962156259E+01 0.19863799606E+01 0.21959729736E+01
 0.24197451000E+01 0.26491878168E+01 0.28668109897E+01 0.30463895208E+01 0.31634698647E+01
 0.32090845447E+01 0.31927394483E+01 0.31299476501E+01 0.37853257157E+01 0.34503025642E+01
 0.31235136058E+01 0.28133846900E+01 0.25180686004E+01 0.22402385260E+01 0.19896160840E+01
 0.17769015472E+01 0.16083038293E+01 0.14846960642E+01 0.14036596861E+01 0.13621353838E+01
 0.13589704136E+01 0.13962201182E+01 0.14776061839E+01 0.16048957507E+01 0.17758451478E+01
 0.19863799606E+01 0.22352870683E+01 0.25265526763E+01 0.28654001240E+01 0.32478907635E+01
 0.36487165937E+01 0.40159761843E+01 0.42816161037E+01 0.43877340846E+01 0.43151354804E+01
 0.40937563231E+01 0.55660068430E+01 0.47911133288E+01 0.40641107487E+01 0.34605783315E+01
 0.29834902028E+01 0.25987454962E+01 0.22743635675E+01 0.19972277003E+01 0.17680298686E+01
 0.15908942346E+01 0.14687792840E+01 0.14036996742E+01 0.13970305031E+01 0.14488330298E+01
 0.15573875416E+01 0.17193818470E+01 0.19316053116E+01 0.21959729736E+01 0.25265526763E+01
 0.29513278082E+01 0.35007906793E+01 0.41837596503E+01 0.49615506220E+01 0.57362339925E+01
 0.63650259157E+01 0.67027394749E+01 0.66591353009E+01 0.62433515235E+01 0.92956253542E+01
 0.77880702606E+01 0.62516694839E+01 0.49226307528E+01 0.39070335055E+01 0.31873615792E+01
 0.26810575892E+01 0.23045358474E+01 0.20064340046E+01 0.17681717407E+01 0.15911132668E+01
 0.14847082529E+01 0.14577509019E+01 0.15121397452E+01 0.16414435142E+01 0.18356820903E+01
 0.20906468564E+01 0.24197451000E+01 0.28654001240E+01 0.35007906793E+01 0.44080856041E+01
 0.56291289830E+01 0.71081365528E+01 0.86635557149E+01 0.10017514663E+02 0.10878792860E+02
 0.11043685819E+02 0.10470283633E+02 0.15988334747E+02 0.13377722992E+02 0.10502054866E+02
 0.78577286992E+01 0.57625718782E+01 0.42941373695E+01 0.33445852344E+01 0.27367069739E+01
 0.23198129483E+01 0.20069611548E+01 0.17680913906E+01 0.16082554034E+01 0.15448068463E+01
 0.15872344830E+01 0.17273669997E+01 0.19478224769E+01 0.22443503437E+01 0.26491878168E+01
 0.32478907635E+01 0.41837596503E+01 0.56291289830E+01 0.77005239842E+01 0.10339341335E+02
 0.13239122319E+02 0.15895417799E+02 0.17848893434E+02 0.18629561491E+02 0.17892107418E+02
 0.33155443845E+02 0.24568204965E+02 0.17879756626E+02 0.13131499356E+02 0.92121488285E+01
 0.63627472589E+01 0.45206650728E+01 0.34097416535E+01 0.27390221198E+01 0.23043707514E+01
 0.19960921120E+01 0.17776246860E+01 0.16624542969E+01 0.16760214416E+01 0.18158086804E+01
 0.20534475873E+01 0.23831544384E+01 0.28668109897E+01 0.36487165937E+01 0.49615506220E+01
 0.71081365528E+01 0.10339341335E+02 0.14623574436E+02 0.19884762781E+02 0.27526646465E+02
 0.36040593846E+02 0.41201286237E+02 0.39989828754E+02 0.91903856322E+02 0.65657544549E+02
 0.39945085449E+02 0.23134925781E+02 0.15112128030E+02 0.10006895182E+02 0.65869249989E+01
 0.45275199144E+01 0.33486464099E+01 0.26770161936E+01 0.22717447658E+01 0.19934179970E+01
 0.18132021273E+01 0.17777459316E+01 0.19061040116E+01 0.21525451882E+01 0.24986673107E+01
 0.30463895208E+01 0.40159761843E+01 0.57362339925E+01 0.86635557149E+01 0.13239122319E+02
 0.19884762781E+02 0.33486892989E+02 0.57070194893E+02 0.84477278886E+02 0.10429159022E+03
 0.10722421752E+03 0.21720924844E+03 0.16763972583E+03 0.10721630946E+03 0.56681656350E+02
 0.27385731498E+02 0.15846601388E+02 0.10009844362E+02 0.63752068740E+01 0.42958085645E+01
 0.31766503450E+01 0.25973384132E+01 0.22495323837E+01 0.19969123534E+01 0.18911993226E+01
 0.19930390932E+01 0.22419089810E+01 0.25865256769E+01 0.31634698647E+01 0.42816161037E+01
 0.63650259157E+01 0.10017514663E+02 0.15895417799E+02 0.27526646465E+02 0.57070194893E+02
 0.10797923173E+03 0.16861349100E+03 0.21791553116E+03 0.23661647555E+03 0.40379719861E+03
 0.33664195716E+03 0.23663732986E+03 0.13669584571E+03 0.63987774476E+02 0.27365307705E+02
 0.15114927348E+02 0.92278133479E+01 0.57563146071E+01 0.38909928166E+01 0.29891705168E+01
 0.25320422733E+01 0.22084792581E+01 0.20192707484E+01 0.20693794772E+01 0.23100169802E+01
 0.26452343006E+01 0.32090845447E+01 0.43877340846E+01 0.67027394749E+01 0.10878792860E+02
 0.17848893434E+02 0.36040593846E+02 0.84477278886E+02 0.16861349100E+03 0.27245625175E+03
 0.36492094647E+03 0.41453378130E+03 0.61308189813E+03 0.54421345763E+03 0.41452192587E+03
 0.26452082772E+03 0.13665687736E+03 0.56654722470E+02 0.23152964615E+02 0.13148292729E+02
 0.78392167738E+01 0.49081026303E+01 0.34786230298E+01 0.28258695654E+01 0.24345485475E+01
 0.21668626824E+01 0.21326707829E+01 0.23406664659E+01 0.26708786683E+01 0.31927394483E+01
 0.43151354804E+01 0.66591353009E+01 0.11043685819E+02 0.18629561491E+02 0.41201286237E+02
 0.10429159022E+03 0.21791553116E+03 0.36492094647E+03 0.50641914722E+03 0.59899501923E+03
 0.78886317385E+03 0.73753910962E+03 0.59897457829E+03 0.41451063093E+03 0.23660478680E+03
 0.10722412833E+03 0.39989460320E+02 0.17888439710E+02 0.10470769923E+02 0.62478908090E+01
 0.40937494530E+01 0.31255170348E+01 0.26545146323E+01 0.23303546620E+01 0.21882091839E+01
 0.23259292714E+01 0.26545131383E+01 0.31299476501E+01 0.40937563231E+01 0.62433515235E+01
 0.10470283633E+02 0.17892107418E+02 0.39989828754E+02 0.10722421752E+03 0.23661647555E+03
 0.41453378130E+03 0.59899501923E+03 0.73754822077E+03 0.72091896779E+03 0.73763278802E+03
 0.65801890260E+03 0.50640284930E+03 0.32835568398E+03 0.17302368212E+03 0.72144463183E+02
 0.27344422148E+02 0.14471981668E+02 0.85507294186E+01 0.52374421251E+01 0.36002683732E+01
 0.29057130420E+01 0.25326745738E+01 0.22342220453E+01 0.21616296734E+01 0.24014133014E+01
 0.27836518868E+01 0.33195261155E+01 0.45261207227E+01 0.71864710579E+01 0.12156740989E+02
 0.21135329217E+02 0.51726033685E+02 0.13246117037E+03 0.27168788197E+03 0.44703180422E+03
 0.61308416769E+03 0.73763278802E+03 0.78899587180E+03 0.73761095181E+03 0.59897032072E+03
 0.41451144039E+03 0.23662838861E+03 0.10721069372E+03 0.39942184920E+02 0.17879311388E+02
 0.10502760995E+02 0.62514619703E+01 0.40630860935E+01 0.31235190125E+01 0.26832331362E+01
 0.23295935633E+01 0.21600174836E+01 0.23294433032E+01 0.26830890314E+01 0.31235087926E+01
 0.40632556565E+01 0.62517096728E+01 0.10502514927E+02 0.17877760028E+02 0.39940101170E+02
 0.10721248134E+03 0.23664062917E+03 0.41453672308E+03 0.59900142492E+03 0.65801890260E+03
 0.73761095181E+03 0.72088674084E+03 0.61305467516E+03 0.44701055660E+03 0.27167776491E+03