   1   1   0   0
  0.2352294E+02  0.3126352E-09  0.3126352E-09  0.3126352E-09  0.5000000E-15
  1.000000000000000E-004
  CAR 
 unknown system                          
     34.18489250    -72.42350313  301      1.33668642      1.00000000
    -72.424  0.0000E+00  0.0000E+00
    -72.068  0.0000E+00  0.0000E+00
    -71.713  0.0000E+00  0.0000E+00
    -71.357  0.0000E+00  0.0000E+00
    -71.002  0.0000E+00  0.0000E+00
    -70.647  0.0000E+00  0.0000E+00
    -70.291  0.0000E+00  0.0000E+00
    -69.936  0.0000E+00  0.0000E+00
    -69.581  0.0000E+00  0.0000E+00
    -69.225  0.0000E+00  0.0000E+00
    -68.870  0.0000E+00  0.0000E+00
    -68.515  0.0000E+00  0.0000E+00
    -68.159  0.0000E+00  0.0000E+00
    -67.804  0.0000E+00  0.0000E+00
    -67.448  0.0000E+00  0.6000E+01
    -67.093  0.0000E+00  0.6000E+01
    -66.738  0.0000E+00  0.6000E+01
    -66.382  0.0000E+00  0.6000E+01
    -66.027  0.0000E+00  0.6000E+01
    -65.672  0.0000E+00  0.6000E+01
    -65.316  0.0000E+00  0.6000E+01
    -64.961  0.0000E+00  0.6000E+01
    -64.606  0.0000E+00  0.6000E+01
    -64.250  0.0000E+00  0.6000E+01
    -63.895  0.0000E+00  0.6000E+01
    -63.539  0.0000E+00  0.6000E+01
    -63.184  0.0000E+00  0.6000E+01
    -62.829  0.0000E+00  0.6000E+01
    -62.473  0.0000E+00  0.6000E+01
    -62.118  0.0000E+00  0.6000E+01
    -61.763  0.0000E+00  0.6000E+01
    -61.407  0.0000E+00  0.6000E+01
    -61.052  0.0000E+00  0.6000E+01
    -60.697  0.0000E+00  0.6000E+01
    -60.341  0.0000E+00  0.6000E+01
    -59.986  0.0000E+00  0.6000E+01
    -59.630  0.0000E+00  0.6000E+01
    -59.275  0.0000E+00  0.6000E+01
    -58.920  0.0000E+00  0.6000E+01
    -58.564  0.0000E+00  0.6000E+01
    -58.209  0.0000E+00  0.6000E+01
    -57.854  0.0000E+00  0.6000E+01
    -57.498  0.0000E+00  0.6000E+01
    -57.143  0.0000E+00  0.6000E+01
    -56.788  0.0000E+00  0.6000E+01
    -56.432  0.0000E+00  0.6000E+01
    -56.077  0.0000E+00  0.6000E+01
    -55.722  0.0000E+00  0.6000E+01
    -55.366  0.0000E+00  0.6000E+01
    -55.011  0.0000E+00  0.6000E+01
    -54.655  0.0000E+00  0.6000E+01
    -54.300  0.0000E+00  0.6000E+01
    -53.945  0.0000E+00  0.6000E+01
    -53.589  0.0000E+00  0.6000E+01
    -53.234  0.0000E+00  0.6000E+01
    -52.879  0.0000E+00  0.6000E+01
    -52.523  0.0000E+00  0.6000E+01
    -52.168  0.0000E+00  0.6000E+01
    -51.813  0.0000E+00  0.6000E+01
    -51.457  0.0000E+00  0.6000E+01
    -51.102  0.0000E+00  0.6000E+01
    -50.746  0.0000E+00  0.6000E+01
    -50.391  0.0000E+00  0.6000E+01
    -50.036  0.0000E+00  0.6000E+01
    -49.680  0.0000E+00  0.6000E+01
    -49.325  0.0000E+00  0.6000E+01
    -48.970  0.0000E+00  0.6000E+01
    -48.614  0.0000E+00  0.6000E+01
    -48.259  0.0000E+00  0.6000E+01
    -47.904  0.0000E+00  0.6000E+01
    -47.548  0.0000E+00  0.6000E+01
    -47.193  0.0000E+00  0.6000E+01
    -46.837  0.0000E+00  0.6000E+01
    -46.482  0.0000E+00  0.6000E+01
    -46.127  0.0000E+00  0.6000E+01
    -45.771  0.0000E+00  0.6000E+01
    -45.416  0.0000E+00  0.6000E+01
    -45.061  0.0000E+00  0.6000E+01
    -44.705  0.0000E+00  0.6000E+01
    -44.350  0.0000E+00  0.6000E+01
    -43.995  0.0000E+00  0.6000E+01
    -43.639  0.0000E+00  0.6000E+01
    -43.284  0.0000E+00  0.6000E+01
    -42.929  0.0000E+00  0.6000E+01
    -42.573  0.0000E+00  0.6000E+01
    -42.218  0.0000E+00  0.6000E+01
    -41.862  0.0000E+00  0.6000E+01
    -41.507  0.0000E+00  0.6000E+01
    -41.152  0.0000E+00  0.6000E+01
    -40.796  0.0000E+00  0.6000E+01
    -40.441  0.0000E+00  0.6000E+01
    -40.086  0.0000E+00  0.6000E+01
    -39.730  0.0000E+00  0.6000E+01
    -39.375  0.0000E+00  0.6000E+01
    -39.020  0.0000E+00  0.6000E+01
    -38.664  0.0000E+00  0.6000E+01
    -38.309  0.0000E+00  0.6000E+01
    -37.953  0.0000E+00  0.6000E+01
    -37.598  0.0000E+00  0.6000E+01
    -37.243  0.0000E+00  0.6000E+01
    -36.887  0.0000E+00  0.6000E+01
    -36.532  0.0000E+00  0.6000E+01
    -36.177  0.0000E+00  0.6000E+01
    -35.821  0.0000E+00  0.6000E+01
    -35.466  0.0000E+00  0.6000E+01
    -35.111  0.0000E+00  0.6000E+01
    -34.755  0.0000E+00  0.6000E+01
    -34.400  0.0000E+00  0.6000E+01
    -34.044  0.0000E+00  0.6000E+01
    -33.689  0.0000E+00  0.6000E+01
    -33.334  0.0000E+00  0.6000E+01
    -32.978  0.0000E+00  0.6000E+01
    -32.623  0.0000E+00  0.6000E+01
    -32.268  0.0000E+00  0.6000E+01
    -31.912  0.0000E+00  0.6000E+01
    -31.557  0.0000E+00  0.6000E+01
    -31.202  0.0000E+00  0.6000E+01
    -30.846  0.0000E+00  0.6000E+01
    -30.491  0.0000E+00  0.6000E+01
    -30.136  0.0000E+00  0.6000E+01
    -29.780  0.0000E+00  0.6000E+01
    -29.425  0.0000E+00  0.6000E+01
    -29.069  0.0000E+00  0.6000E+01
    -28.714  0.0000E+00  0.6000E+01
    -28.359  0.0000E+00  0.6000E+01
    -28.003  0.0000E+00  0.6000E+01
    -27.648  0.0000E+00  0.6000E+01
    -27.293  0.0000E+00  0.6000E+01
    -26.937  0.0000E+00  0.6000E+01
    -26.582  0.0000E+00  0.6000E+01
    -26.227  0.0000E+00  0.6000E+01
    -25.871  0.0000E+00  0.6000E+01
    -25.516  0.0000E+00  0.6000E+01
    -25.160  0.0000E+00  0.6000E+01
    -24.805  0.0000E+00  0.6000E+01
    -24.450  0.0000E+00  0.6000E+01
    -24.094  0.0000E+00  0.6000E+01
    -23.739  0.0000E+00  0.6000E+01
    -23.384  0.0000E+00  0.6000E+01
    -23.028  0.0000E+00  0.6000E+01
    -22.673  0.0000E+00  0.6000E+01
    -22.318  0.0000E+00  0.6000E+01
    -21.962  0.0000E+00  0.6000E+01
    -21.607  0.0000E+00  0.6000E+01
    -21.251  0.0000E+00  0.6000E+01
    -20.896  0.0000E+00  0.6000E+01
    -20.541  0.0000E+00  0.6000E+01
    -20.185  0.0000E+00  0.6000E+01
    -19.830  0.0000E+00  0.6000E+01
    -19.475  0.0000E+00  0.6000E+01
    -19.119  0.0000E+00  0.6000E+01
    -18.764  0.0000E+00  0.6000E+01
    -18.409  0.0000E+00  0.6000E+01
    -18.053  0.0000E+00  0.6000E+01
    -17.698  0.0000E+00  0.6000E+01
    -17.342  0.0000E+00  0.6000E+01
    -16.987  0.0000E+00  0.6000E+01
    -16.632  0.0000E+00  0.6000E+01
    -16.276  0.0000E+00  0.6000E+01
    -15.921  0.0000E+00  0.6000E+01
    -15.566  0.0000E+00  0.6000E+01
    -15.210  0.0000E+00  0.6000E+01
    -14.855  0.0000E+00  0.6000E+01
    -14.500  0.0000E+00  0.6000E+01
    -14.144  0.0000E+00  0.6000E+01
    -13.789  0.0000E+00  0.6000E+01
    -13.434  0.0000E+00  0.6000E+01
    -13.078  0.0000E+00  0.6000E+01
    -12.723  0.0000E+00  0.6000E+01
    -12.367  0.0000E+00  0.6000E+01
    -12.012  0.0000E+00  0.6000E+01
    -11.657  0.0000E+00  0.6000E+01
    -11.301  0.0000E+00  0.6000E+01
    -10.946  0.0000E+00  0.6000E+01
    -10.591  0.0000E+00  0.6000E+01
    -10.235  0.0000E+00  0.6000E+01
     -9.880  0.0000E+00  0.6000E+01
     -9.525  0.0000E+00  0.6000E+01
     -9.169  0.0000E+00  0.6000E+01
     -8.814  0.0000E+00  0.6000E+01
     -8.458  0.0000E+00  0.6000E+01
     -8.103  0.0000E+00  0.6000E+01
     -7.748  0.0000E+00  0.6000E+01
     -7.392  0.0000E+00  0.6000E+01
     -7.037  0.0000E+00  0.6000E+01
     -6.682  0.0000E+00  0.6000E+01
     -6.326  0.0000E+00  0.6000E+01
     -5.971  0.0000E+00  0.6000E+01
     -5.616  0.0000E+00  0.6000E+01
     -5.260  0.0000E+00  0.6000E+01
     -4.905  0.0000E+00  0.6000E+01
     -4.549  0.0000E+00  0.6000E+01
     -4.194  0.0000E+00  0.6000E+01
     -3.839  0.4439E-01  0.6003E+01
     -3.483  0.1143E+00  0.6032E+01
     -3.128  0.1477E+00  0.6076E+01
     -2.773  0.1907E+00  0.6137E+01
     -2.417  0.2323E+00  0.6211E+01
     -2.062  0.3020E+00  0.6305E+01
     -1.707  0.4442E+00  0.6435E+01
     -1.351  0.8000E+00  0.6642E+01
     -0.996  0.2459E+01  0.7295E+01
     -0.641  0.7283E+01  0.9745E+01
     -0.285  0.1402E+02  0.1253E+02
      0.070  0.6403E+00  0.1641E+02
      0.426  0.5105E+00  0.1661E+02
      0.781  0.4151E+00  0.1677E+02
      1.136  0.4140E+00  0.1692E+02
      1.492  0.4402E+00  0.1707E+02
      1.847  0.4568E+00  0.1723E+02
      2.202  0.4496E+00  0.1739E+02
      2.558  0.3604E+00  0.1754E+02
      2.913  0.3328E+00  0.1766E+02
      3.268  0.3491E+00  0.1778E+02
      3.624  0.3509E+00  0.1792E+02
      3.979  0.3927E+00  0.1805E+02
      4.335  0.4764E+00  0.1821E+02
      4.690  0.4803E+00  0.1838E+02
      5.045  0.5163E+00  0.1856E+02
      5.401  0.4627E+00  0.1874E+02
      5.756  0.4030E+00  0.1889E+02
      6.111  0.4958E+00  0.1906E+02
      6.467  0.5219E+00  0.1924E+02
      6.822  0.5319E+00  0.1942E+02
      7.177  0.5379E+00  0.1962E+02
      7.533  0.5603E+00  0.1981E+02
      7.888  0.5332E+00  0.2001E+02
      8.244  0.5341E+00  0.2020E+02
      8.599  0.5289E+00  0.2039E+02
      8.954  0.5230E+00  0.2058E+02
      9.310  0.5222E+00  0.2076E+02
      9.665  0.5156E+00  0.2095E+02
     10.020  0.5500E+00  0.2114E+02
     10.376  0.5352E+00  0.2133E+02
     10.731  0.5294E+00  0.2152E+02
     11.086  0.5982E+00  0.2172E+02
     11.442  0.6278E+00  0.2193E+02
     11.797  0.6688E+00  0.2216E+02
     12.152  0.6889E+00  0.2241E+02
     12.508  0.7744E+00  0.2267E+02
     12.863  0.8908E+00  0.2296E+02
     13.219  0.1048E+01  0.2331E+02
     13.574  0.7871E+00  0.2365E+02
     13.929  0.5069E+00  0.2387E+02
     14.285  0.4036E+00  0.2402E+02
     14.640  0.3539E+00  0.2416E+02
     14.995  0.3319E+00  0.2428E+02
     15.351  0.3383E+00  0.2440E+02
     15.706  0.3797E+00  0.2452E+02
     16.061  0.3919E+00  0.2465E+02
     16.417  0.6537E+00  0.2484E+02
     16.772  0.6798E+00  0.2509E+02
     17.128  0.6623E+00  0.2532E+02
     17.483  0.6610E+00  0.2556E+02
     17.838  0.7667E+00  0.2581E+02
     18.194  0.9438E+00  0.2611E+02
     18.549  0.1083E+01  0.2648E+02
     18.904  0.9202E+00  0.2685E+02
     19.260  0.6961E+00  0.2712E+02
     19.615  0.6534E+00  0.2736E+02
     19.970  0.7456E+00  0.2760E+02
     20.326  0.9383E+00  0.2790E+02
     20.681  0.7985E+00  0.2821E+02
     21.037  0.7446E+00  0.2849E+02
     21.392  0.7453E+00  0.2875E+02
     21.747  0.6733E+00  0.2901E+02
     22.103  0.6633E+00  0.2924E+02
     22.458  0.7260E+00  0.2949E+02
     22.813  0.8914E+00  0.2978E+02
     23.169  0.7967E+00  0.3007E+02
     23.524  0.7703E+00  0.3035E+02
     23.879  0.7741E+00  0.3063E+02
     24.235  0.7755E+00  0.3090E+02
     24.590  0.7732E+00  0.3119E+02
     24.945  0.7385E+00  0.3146E+02
     25.301  0.4150E+00  0.3165E+02
     25.656  0.3076E+00  0.3176E+02
     26.012  0.1951E+00  0.3186E+02
     26.367  0.8772E-01  0.3192E+02
     26.722  0.5906E-01  0.3194E+02
     27.078  0.3855E-01  0.3196E+02
     27.433  0.2619E-01  0.3197E+02
     27.788  0.2008E-01  0.3198E+02
     28.144  0.1553E-01  0.3198E+02
     28.499  0.1065E-01  0.3199E+02
     28.854  0.8841E-02  0.3199E+02
     29.210  0.2533E-01  0.3200E+02
     29.565  0.0000E+00  0.3200E+02
     29.921  0.0000E+00  0.3200E+02
     30.276  0.0000E+00  0.3200E+02
     30.631  0.0000E+00  0.3200E+02
     30.987  0.0000E+00  0.3200E+02
     31.342  0.0000E+00  0.3200E+02
     31.697  0.0000E+00  0.3200E+02
     32.053  0.0000E+00  0.3200E+02
     32.408  0.0000E+00  0.3200E+02
     32.763  0.0000E+00  0.3200E+02
     33.119  0.0000E+00  0.3200E+02
     33.474  0.0000E+00  0.3200E+02
     33.830  0.0000E+00  0.3200E+02
     34.185  0.0000E+00  0.3200E+02
