    1    1    1    1
  0.2352294E+02  0.3126352E-09  0.3126352E-09  0.3126352E-09  0.5000000E-15
  1.000000000000000E-004
  CAR 
 unknown system                          
   17   44   16
 
  0.5000000E-01  0.5000000E-01  0.5000000E-01  0.8000000E-02
   1      -67.532459
   2      -67.483155
   3      -67.483033
   4       -3.674733
   5       -0.580096
   6       -0.580012
   7       -0.467727
   8       -0.198556
   9       -0.198546
  10       14.821488
  11       15.600512
  12       15.600606
  13       18.989047
  14       18.989152
  15       20.259098
  16       21.384148
 
  0.1500000E+00  0.5000000E-01  0.5000000E-01  0.2400000E-01
   1      -67.522668
   2      -67.509386
   3      -67.499026
   4       -2.988457
   5       -0.646317
   6       -0.594693
   7       -0.309465
   8       -0.235718
   9       -0.192870
  10       11.578083
  11       13.558312
  12       14.159501
  13       18.647013
  14       18.806599
  15       20.329385
  16       22.285746
 
  0.2500000E+00  0.5000000E-01  0.5000000E-01  0.2400000E-01
   1      -67.540361
   2      -67.532694
   3      -67.515251
   4       -1.977963
   5       -0.726528
   6       -0.536975
   7       -0.245430
   8       -0.188585
   9       -0.074164
  10        8.181375
  11       12.250597
  12       13.054219
  13       17.951646
  14       17.957838
  15       21.470116
  16       23.287676
 
  0.3500000E+00  0.5000000E-01  0.5000000E-01  0.2400000E-01
   1      -67.547589
   2      -67.545070
   3      -67.502853
   4       -1.301274
   5       -0.780349
   6       -0.224618
   7       -0.196922
   8       -0.179617
   9        0.642615
  10        5.168866
  11       11.425892
  12       12.369464
  13       17.394317
  14       17.495716
  15       23.113410
  16       24.374935
 
  0.4500000E+00  0.5000000E-01  0.5000000E-01  0.1200000E-01
   1      -67.527119
   2      -67.508979
   3      -67.498834
   4       -1.192785
   5       -0.797718
   6       -0.205036
   7       -0.184542
   8       -0.050972
   9        2.218886
  10        2.949319
  11       11.142508
  12       12.139889
  13       17.205426
  14       17.348727
  15       24.471631
  16       25.093066
 
 -0.5000000E-01  0.5000000E-01  0.5000000E-01  0.6000000E-02
   1      -67.521743
   2      -67.483427
   3      -67.482320
   4       -3.909796
   5       -0.563067
   6       -0.562756
   7       -0.545004
   8       -0.182485
   9       -0.176319
  10       16.708040
  11       16.738860
  12       16.738889
  13       18.476830
  14       19.467551
  15       19.467822
  16       21.042992
 
  0.1500000E+00  0.1500000E+00  0.5000000E-01  0.2400000E-01
   1      -67.534475
   2      -67.521810
   3      -67.515192
   4       -2.145069
   5       -0.684151
   6       -0.658734
   7       -0.243920
   8       -0.190257
   9       -0.064979
  10        9.807818
  11       10.677533
  12       12.585897
  13       19.639046
  14       19.697685
  15       21.357765
  16       23.041880
 
  0.2500000E+00  0.1500000E+00  0.5000000E-01  0.4800000E-01
   1      -67.537208
   2      -67.533368
   3      -67.505969
   4       -1.277169
   5       -0.739209
   6       -0.577234
   7       -0.236033
   8       -0.179528
   9        0.505844
  10        6.953746
  11        9.359324
  12       11.656817
  13       19.050646
  14       20.735504
  15       21.601481
  16       25.403710
 
  0.3500000E+00  0.1500000E+00  0.5000000E-01  0.4800000E-01
   1      -67.536419
   2      -67.528290
   3      -67.517238
   4       -1.059479
   5       -0.774956
   6       -0.341534
   7       -0.217323
   8       -0.161878
   9        1.959020
  10        4.221423
  11        8.817117
  12       11.187561
  13       18.690571
  14       20.790861
  15       22.953530
  16       24.847138
 
 -0.1500000E+00  0.1500000E+00  0.5000000E-01  0.2400000E-01
   1      -67.527635
   2      -67.519926
   3      -67.518365
   4       -3.441829
   5       -0.604902
   6       -0.560335
   7       -0.454376
   8       -0.253789
   9       -0.177500
  10       13.394120
  11       15.103142
  12       15.762196
  13       17.657090
  14       18.424056
  15       19.200498
  16       22.875493
 
  0.2500000E+00  0.2500000E+00  0.5000000E-01  0.2400000E-01
   1      -67.511697
   2      -67.503406
   3      -67.499997
   4       -0.932078
   5       -0.705375
   6       -0.558016
   7       -0.216244
   8       -0.163979
   9        1.798080
  10        5.919376
  11        6.729752
  12       10.972050
  13       20.524393
  14       20.619643
  15       24.602399
  16       24.700107
 
  0.3500000E+00  0.2500000E+00  0.5000000E-01  0.2400000E-01
   1      -67.523072
   2      -67.510341
   3      -67.507077
   4       -0.895273
   5       -0.703206
   6       -0.517687
   7       -0.201966
   8       -0.165896
   9        3.655614
  10        3.866686
  11        6.144350
  12       10.744056
  13       20.394967
  14       22.483472
  15       22.501789
  16       24.919572
 
 -0.2500000E+00  0.2500000E+00  0.5000000E-01  0.2400000E-01
   1      -67.534631
   2      -67.517451
   3      -67.503030
   4       -2.556041
   5       -0.673740
   6       -0.535013
   7       -0.277210
   8       -0.274534
   9       -0.167396
  10        9.813082
  11       13.588140
  12       14.532111
  13       17.253738
  14       17.311497
  15       19.578233
  16       24.082033
 
 -0.1500000E+00  0.2500000E+00  0.5000000E-01  0.2400000E-01
   1      -67.531172
   2      -67.526957
   3      -67.505208
   4       -2.764750
   5       -0.614644
   6       -0.584710
   7       -0.319759
   8       -0.305290
   9       -0.152053
  10       11.525377
  11       12.176525
  12       15.156129
  13       16.963942
  14       17.909312
  15       20.545834
  16       22.602916
 
 -0.3500000E+00  0.3500000E+00  0.5000000E-01  0.2400000E-01
   1      -67.534819
   2      -67.527494
   3      -67.513286
   4       -1.575769
   5       -0.737136
   6       -0.335453
   7       -0.217304
   8       -0.102708
   9       -0.037257
  10        6.574753
  11       12.474469
  12       13.626209
  13       16.573317
  14       16.801517
  15       20.771875
  16       25.016386
 
 -0.2500000E+00  0.3500000E+00  0.5000000E-01  0.4800000E-01
   1      -67.528221
   2      -67.513867
   3      -67.504857
   4       -1.790163
   5       -0.666785
   6       -0.557043
   7       -0.298365
   8       -0.163785
   9       -0.006285
  10        8.381210
  11       10.720625
  12       14.224016
  13       16.693982
  14       18.125355
  15       20.460223
  16       25.005495
 
 -0.4500000E+00  0.4500000E+00  0.5000000E-01  0.2400000E-01
   1      -67.535030
   2      -67.524845
   3      -67.513729
   4       -1.242709
   5       -0.779378
   6       -0.252081
   7       -0.212232
   8        0.023497
   9        1.360858
  10        3.804320
  11       11.883366
  12       13.155744
  13       16.206647
  14       16.554940
  15       22.446444
  16       24.357722
 
 -0.3500000E+00  0.4500000E+00  0.5000000E-01  0.4800000E-01
   1      -67.547196
   2      -67.543470
   3      -67.507327
   4       -1.190672
   5       -0.725586
   6       -0.411742
   7       -0.248614
   8       -0.090641
   9        0.866795
  10        5.385328
  11        9.941486
  12       13.516775
  13       16.308551
  14       19.127474
  15       20.317355
  16       23.938312
 
 -0.2500000E+00  0.4500000E+00  0.5000000E-01  0.2400000E-01
   1      -67.558858
   2      -67.540717
   3      -67.522443
   4       -1.118414
   5       -0.690081
   6       -0.567038
   7       -0.296111
   8       -0.144924
   9        0.763241
  10        7.092324
  11        7.877790
  12       13.810482
  13       17.257071
  14       17.704346
  15       23.360181
  16       23.627290
 
 -0.4500000E+00 -0.4500000E+00  0.5000000E-01  0.2400000E-01
   1      -67.551928
   2      -67.517617
   3      -67.488297
   4       -1.100993
   5       -0.739542
   6       -0.359221
   7       -0.243540
   8       -0.019526
   9        2.567572
  10        3.077684
  11        9.678514
  12       13.268987
  13       16.170914
  14       19.382657
  15       21.632697
  16       21.813680
 
 -0.3500000E+00 -0.4500000E+00  0.5000000E-01  0.4800000E-01
   1      -67.559926
   2      -67.526018
   3      -67.502732
   4       -0.940875
   5       -0.701042
   6       -0.521060
   7       -0.246198
   8       -0.111456
   9        2.399782
  10        4.653124
  11        7.051003
  12       13.466803
  13       17.145663
  14       19.059273
  15       21.154130
  16       23.628886
 
 -0.3500000E+00 -0.3500000E+00  0.5000000E-01  0.8000000E-02
   1      -67.572613
   2      -67.543553
   3      -67.542163
   4       -0.854723
   5       -0.655055
   6       -0.654774
   7       -0.175236
   8       -0.175152
   9        4.078547
  10        4.652879
  11        4.653535
  12       13.385993
  13       18.810339
  14       18.810828
  15       19.011118
  16       27.538097
 
  0.1500000E+00  0.1500000E+00  0.1500000E+00  0.8000000E-02
   1      -67.518870
   2      -67.491619
   3      -67.491505
   4       -1.307326
   5       -0.726354
   6       -0.726298
   7       -0.196010
   8       -0.195981
   9        0.455298
  10        8.290232
  11        9.561231
  12        9.561294
  13       22.240994
  14       22.241143
  15       23.017783
  16       23.638345
 
  0.2500000E+00  0.1500000E+00  0.1500000E+00  0.2400000E-01
   1      -67.535271
   2      -67.518336
   3      -67.510484
   4       -0.897169
   5       -0.772977
   6       -0.594941
   7       -0.196812
   8       -0.189276
   9        1.610180
  10        5.967867
  11        8.157358
  12        8.879621
  13       22.515315
  14       22.520304
  15       24.198129
  16       25.215083
 
  0.3500000E+00  0.1500000E+00  0.1500000E+00  0.1200000E-01
   1      -67.534292
   2      -67.525625
   3      -67.522303
   4       -0.894403
   5       -0.785384
   6       -0.456473
   7       -0.192173
   8       -0.189943
   9        3.488456
  10        3.586632
  11        7.834672
  12        8.650869
  13       22.336814
  14       22.412242
  15       25.645521
  16       26.043287
 
 -0.1500000E+00  0.1500000E+00  0.1500000E+00  0.6000000E-02
   1      -67.511650
   2      -67.500489
   3      -67.499368
   4       -2.982712
   5       -0.537292
   6       -0.536997
   7       -0.451405
   8       -0.323271
   9       -0.128642
  10       13.476339
  11       13.476936
  12       13.672111
  13       15.251972
  14       20.280534
  15       20.280643
  16       21.714456
 
  0.2500000E+00  0.2500000E+00  0.1500000E+00  0.2400000E-01
   1      -67.558482
   2      -67.532900
   3      -67.532380
   4       -0.824429
   5       -0.714417
   6       -0.614677
   7       -0.198897
   8       -0.181630
   9        3.295376
  10        5.257556
  11        6.008347
  12        8.103173
  13       24.216884
  14       24.321386
  15       26.156635
  16       26.273353
 
 -0.2500000E+00  0.2500000E+00  0.1500000E+00  0.2400000E-01
   1      -67.539529
   2      -67.508745
   3      -67.504223
   4       -2.132146
   5       -0.565933
   6       -0.530735
   7       -0.383460
   8       -0.294973
   9       -0.085262
  10       10.202598
  11       12.009154
  12       13.061921
  13       15.171052
  14       19.648442
  15       20.186169
  16       24.110247
 
 -0.3500000E+00  0.3500000E+00  0.1500000E+00  0.2400000E-01
   1      -67.549033
   2      -67.505603
   3      -67.499703
   4       -1.282862
   5       -0.623207
   6       -0.538707
   7       -0.303186
   8       -0.105128
   9        0.343189
  10        7.005286
  11       10.943783
  12       12.322726
  13       16.289934
  14       18.860101
  15       19.665190
  16       23.369795
 
 -0.2500000E+00  0.3500000E+00  0.1500000E+00  0.2400000E-01
   1      -67.576564
   2      -67.520478
   3      -67.502182
   4       -1.328657
   5       -0.616860
   6       -0.525844
   7       -0.379660
   8       -0.182633
   9        0.246951
  10        8.740716
  11        9.379014
  12       13.260227
  13       14.509603
  14       18.998661
  15       22.606490
  16       22.984170
 
 -0.4500000E+00  0.4500000E+00  0.1500000E+00  0.2400000E-01
   1      -67.577667
   2      -67.524150
   3      -67.519935
   4       -1.062414
   5       -0.667446
   6       -0.490276
   7       -0.306085
   8        0.016062
   9        1.884884
  10        4.216309
  11       10.379054
  12       11.923401
  13       17.626636
  14       18.448807
  15       19.507492
  16       21.006708
 
 -0.3500000E+00  0.4500000E+00  0.1500000E+00  0.4800000E-01
   1      -67.570699
   2      -67.499874
   3      -67.498374
   4       -0.942484
   5       -0.668496
   6       -0.550234
   7       -0.305403
   8       -0.069296
   9        1.476366
  10        6.025223
  11        8.371111
  12       13.011678
  13       15.533761
  14       18.416967
  15       20.315882
  16       22.760249
 
 -0.4500000E+00 -0.4500000E+00  0.1500000E+00  0.2400000E-01
   1      -67.569442
   2      -67.527161
   3      -67.468368
   4       -0.914098
   5       -0.611607
   6       -0.606227
   7       -0.283735
   8       -0.010061
   9        3.472261
  10        3.511219
  11        8.097266
  12       12.829871
  13       16.804078
  14       17.961921
  15       18.835622
  16       22.599959
 
 -0.3500000E+00 -0.4500000E+00  0.1500000E+00  0.2400000E-01
   1      -67.562716
   2      -67.517983
   3      -67.508157
   4       -0.771928
   5       -0.744240
   6       -0.627284
   7       -0.195170
   8       -0.086624
   9        3.248196
  10        5.322290
  11        5.864783
  12       14.114840
  13       15.580059
  14       17.278380
  15       18.623945
  16       26.339115
 
  0.2500000E+00  0.2500000E+00  0.2500000E+00  0.2000000E-02
   1      -67.513267
   2      -67.513155
   3      -67.511644
   4       -0.701378
   5       -0.700956
   6       -0.700877
   7       -0.175229
   8       -0.175229
   9        4.446207
  10        5.767275
  11        5.767868
  12        5.767929
  13       27.510338
  14       27.510535
  15       27.510912
  16       28.429253
 
 -0.2500000E+00  0.2500000E+00  0.2500000E+00  0.6000000E-02
   1      -67.568996
   2      -67.487307
   3      -67.486290
   4       -1.430411
   5       -0.547156
   6       -0.438454
   7       -0.438202
   8       -0.284802
   9        0.134306
  10       10.541500
  11       10.542218
  12       11.189176
  13       12.938349
  14       22.356883
  15       22.357046
  16       22.743672
 
 -0.3500000E+00  0.3500000E+00  0.2500000E+00  0.2400000E-01
   1      -67.562382
   2      -67.501442
   3      -67.487881
   4       -0.962673
   5       -0.680367
   6       -0.428262
   7       -0.346405
   8       -0.135405
   9        1.016313
  10        7.814732
  11        9.468946
  12       11.071129
  13       13.165709
  14       19.701129
  15       21.870487
  16       22.603897
 
 -0.4500000E+00  0.4500000E+00  0.2500000E+00  0.2400000E-01
   1      -67.541824
   2      -67.502488
   3      -67.460246
   4       -0.873041
   5       -0.728004
   6       -0.433325
   7       -0.313922
   8        0.007114
   9        2.762166
  10        5.073348
  11        8.898983
  12       10.833298
  13       14.746677
  14       17.068359
  15       21.461148
  16       22.333901
 
 -0.3500000E+00  0.4500000E+00  0.2500000E+00  0.2400000E-01
   1      -67.520739
   2      -67.489793
   3      -67.460264
   4       -0.846482
   5       -0.781899
   6       -0.401088
   7       -0.214208
   8       -0.057244
   9        2.507709
  10        6.844003
  11        7.351926
  12       11.626797
  13       12.907387
  14       16.857239
  15       21.630293
  16       25.609193
 
 -0.4500000E+00 -0.4500000E+00  0.2500000E+00  0.2400000E-01
   1      -67.509559
   2      -67.499690
   3      -67.464456
   4       -0.846183
   5       -0.809470
   6       -0.412627
   7       -0.159618
   8       -0.017206
   9        4.376534
  10        4.749514
  11        6.878812
  12       11.822936
  13       14.115711
  14       14.756010
  15       21.438024
  16       25.817152
 
 -0.3500000E+00  0.3500000E+00  0.3500000E+00  0.6000000E-02
   1      -67.486180
   2      -67.477109
   3      -67.476135
   4       -0.885065
   5       -0.795006
   6       -0.222686
   7       -0.222488
   8       -0.130115
   9        2.244609
  10        8.372647
  11        8.373412
  12        9.664496
  13       11.492886
  14       16.666672
  15       25.304376
  16       25.365157
 
 -0.4500000E+00  0.4500000E+00  0.3500000E+00  0.2400000E-01
   1      -67.489907
   2      -67.485613
   3      -67.473733
   4       -0.903674
   5       -0.879513
   6       -0.198261
   7       -0.151152
   8       -0.018698
   9        4.021486
  10        6.298905
  11        7.781646
  12        9.889709
  13       11.978722
  14       14.069787
  15       24.891900
  16       25.737205
 
 -0.4500000E+00 -0.4500000E+00  0.3500000E+00  0.8000000E-02
   1      -67.472717
   2      -67.471434
   3      -67.456461
   4       -0.915229
   5       -0.915202
   6       -0.177519
   7       -0.031974
   8       -0.031712
   9        5.601236
  10        6.230645
  11        6.231574
  12       10.344249
  13       12.135374
  14       12.135620
  15       25.034158
  16       29.339056
 
 -0.4500000E+00  0.4500000E+00  0.4500000E+00  0.6000000E-02
   1      -67.491173
   2      -67.490296
   3      -67.474989
   4       -0.966105
   5       -0.958666
   6       -0.048272
   7       -0.048106
   8       -0.031264
   9        5.688099
  10        7.172474
  11        7.173277
  12        8.736703
  13       10.803580
  14       11.717629
  15       28.169084
  16       29.136009
