Automatically generated mesh
      44
Reciprocal lattice
    0.05000000000000    0.05000000000000    0.05000000000000             8
    0.15000000000000    0.05000000000000    0.05000000000000            24
    0.25000000000000    0.05000000000000    0.05000000000000            24
    0.35000000000000    0.05000000000000    0.05000000000000            24
    0.45000000000000    0.05000000000000    0.05000000000000            12
   -0.05000000000000    0.05000000000000    0.05000000000000             6
    0.15000000000000    0.15000000000000    0.05000000000000            24
    0.25000000000000    0.15000000000000    0.05000000000000            48
    0.35000000000000    0.15000000000000    0.05000000000000            48
   -0.15000000000000    0.15000000000000    0.05000000000000            24
    0.25000000000000    0.25000000000000    0.05000000000000            24
    0.35000000000000    0.25000000000000    0.05000000000000            24
   -0.25000000000000    0.25000000000000    0.05000000000000            24
   -0.15000000000000    0.25000000000000    0.05000000000000            24
   -0.35000000000000    0.35000000000000    0.05000000000000            24
   -0.25000000000000    0.35000000000000    0.05000000000000            48
   -0.45000000000000    0.45000000000000    0.05000000000000            24
   -0.35000000000000    0.45000000000000    0.05000000000000            48
   -0.25000000000000    0.45000000000000    0.05000000000000            24
   -0.45000000000000   -0.45000000000000    0.05000000000000            24
   -0.35000000000000   -0.45000000000000    0.05000000000000            48
   -0.35000000000000   -0.35000000000000    0.05000000000000             8
    0.15000000000000    0.15000000000000    0.15000000000000             8
    0.25000000000000    0.15000000000000    0.15000000000000            24
    0.35000000000000    0.15000000000000    0.15000000000000            12
   -0.15000000000000    0.15000000000000    0.15000000000000             6
    0.25000000000000    0.25000000000000    0.15000000000000            24
   -0.25000000000000    0.25000000000000    0.15000000000000            24
   -0.35000000000000    0.35000000000000    0.15000000000000            24
   -0.25000000000000    0.35000000000000    0.15000000000000            24
   -0.45000000000000    0.45000000000000    0.15000000000000            24
   -0.35000000000000    0.45000000000000    0.15000000000000            48
   -0.45000000000000   -0.45000000000000    0.15000000000000            24
   -0.35000000000000   -0.45000000000000    0.15000000000000            24
    0.25000000000000    0.25000000000000    0.25000000000000             2
   -0.25000000000000    0.25000000000000    0.25000000000000             6
   -0.35000000000000    0.35000000000000    0.25000000000000            24
   -0.45000000000000    0.45000000000000    0.25000000000000            24
   -0.35000000000000    0.45000000000000    0.25000000000000            24
   -0.45000000000000   -0.45000000000000    0.25000000000000            24
   -0.35000000000000    0.35000000000000    0.35000000000000             6
   -0.45000000000000    0.45000000000000    0.35000000000000            24
   -0.45000000000000   -0.45000000000000    0.35000000000000             8
   -0.45000000000000    0.45000000000000    0.45000000000000             6
Tetrahedra
      1097    0.00016666666667
         4         1         2         2         7
         8         2         2         7         7
         4         2         7         7        23
         4         2         3         7         8
         4         2         7         7         8
        12         7         7         8        23
         8         3         7         8         8
         8         7         8         8        24
         8         7         8        23        24
         4         3         4         8         9
         4         3         8         8         9
        12         8         8         9        24
         8         4         8         9         9
         4         8         9         9        25
         4         8         9        24        25
         4         4         5         9         9
         4         4         9         9         9
         8         9         9         9        25
         8         5         9         9         9
         4         9         9         9        24
         4         9         9        24        25
         4         4         5         8         9
         4         5         8         9         9
         8         8         9         9        24
         8         4         8         8         9
         4         8         8         9        23
         4         8         9        23        24
         4         3         4         7         8
         4         4         7         8         8
        16         7         8         8        23
         8         3         7         7         8
         4         7         7         7         8
         4         2         2         3         7
         8         2         3         7         7
         4         2         7         7         7
         4         2         2         2         7
         8         2         2         7        14
         4         2         7         7        14
        16         1         2         2        10
         4         2         2         2        10
        12         2         2        10        14
        16         1         2        10        10
         4         2        10        10        26
         4         2        10        14        26
        20         1         6        10        10
         4         1        10        10        10
         4        10        10        10        26
         8         6        10        10        10
         4        10        10        10        14
         4        10        10        14        26
         8         1         2         6        10
         8         2         6        10        10
         8         2        10        10        14
         4         2         2         7        10
         4         2         7        10        14
         4         7         8        11        23
        12         8        11        23        24
         4        11        23        24        27
         4         8         9        12        24
         4         8        11        12        24
         8        11        12        24        27
        16         9        12        24        25
        16        12        24        25        27
         8        12        24        27        27
         8         9         9        11        25
        12         9        11        12        25
        16        11        12        25        27
        12         9        11        24        25
         4        11        24        24        25
        16        11        24        25        27
        16         8         9        11        24
         8         8        11        24        24
        16         8         8        23        24
         4         8         8        24        24
        12         3         7         8        23
         8         3         8         8        23
         8         3         7         7        23
         4         3         7        16        23
         4         3         8        16        23
         4         2         7         7        13
         4         3         7         7        13
         8         3         7        13        16
        12         2         7        13        14
         4         7        13        14        28
         4         7        13        16        28
         4         2        10        14        14
         4         2        13        14        14
         4        13        14        14        28
         8        10        14        14        26
         8        14        14        26        28
         4        14        14        28        28
         4        10        10        13        26
        12        10        13        14        26
        12        13        14        26        28
         4        13        14        16        26
         4        13        16        26        28
         4         2         3        10        14
         4         3        10        13        14
         8         3        13        14        16
        16         2         3         7        14
         4         3         7         8        14
         4         3         8        14        16
         8        11        12        12        27
         8        12        12        27        27
        12        12        25        27        27
        12         9        11        12        27
         4         9        12        12        27
         8         9        12        25        27
        12         9        11        24        27
         4         9         9        24        27
         8         9         9        25        27
         4         4         8        11        24
         4         4         9        11        24
         4         4         9         9        24
         4         4         8         8        24
         4         4         8        18        24
         4         4         9        18        24
         4         3         8         8        15
         4         4         8         8        15
         8         4         8        15        18
         8         3         8        15        16
         4         8        15        16        29
         4         8        15        18        29
         4         3        13        16        16
         4         3        15        16        16
         4        15        16        16        29
         8        13        16        16        28
        12        16        16        28        30
         4        16        16        29        30
         8        13        14        16        28
         8        14        16        28        28
         4        16        28        28        29
         8        16        28        29        30
         4        13        14        15        28
         4        14        15        16        28
         8        15        16        28        29
         8        13        15        16        28
         4        15        16        18        28
         4        15        18        28        29
         4         3         4        13        16
         4         4        13        15        16
         8         4        15        16        18
        12         3         4         8        16
         4         4         8         9        16
         4         4         9        16        18
         4         5         9        12        25
         8         5         9         9        25
         4         5         9        20        25
         4         4         9         9        17
         8         5         9         9        17
         8         5         9        17        20
         8         4         9        17        18
         4         9        17        18        31
         4         9        17        20        31
         4         4        15        18        18
         4         4        17        18        18
         4        17        18        18        31
         4        15        18        18        29
         4        18        18        29        32
         4        18        18        31        32
         4        15        16        19        29
         4        15        18        19        29
         8        18        19        29        32
        12        16        19        29        30
        12        19        29        30        32
         4        19        29        32        32
         4        16        16        18        30
        12        16        18        19        30
        12        18        19        30        32
         8        16        18        29        30
         4        18        29        30        31
         4        18        30        31        32
         4        15        16        17        29
         4        16        17        18        29
         8        17        18        29        31
         8        15        17        18        29
         4        17        18        20        29
         4        17        20        29        31
         4         4         5        15        18
         4         5        15        17        18
        12         5        17        18        20
        12         4         5         9        18
         8         5         9         9        18
        12         5         9        18        20
         4         5        17        20        20
         4        17        20        20        31
         4        20        20        31        33
         4        17        18        21        31
         4        17        20        21        31
         8        20        21        31        33
         8        18        21        31        32
         4        21        31        32        34
         4        21        31        33        34
         8        18        19        21        32
         4        18        21        21        32
        12        21        21        32        34
         8        19        21        32        32
         4        21        32        32        33
        16        21        32        33        34
         4        18        19        20        32
         4        19        20        21        32
        12        20        21        32        33
         8        18        20        31        32
         4        20        31        31        32
        12        20        31        32        33
         4        17        17        18        31
         8        17        18        20        31
         8        17        20        31        31
         8        17        17        20        31
         4        17        18        31        31
        16         4         5        17        20
         8         4        17        17        20
         8         4        17        18        20
        16         4         5         9        20
         4         4         8         9        20
         4         4         8        18        20
         4        20        21        22        33
        12        21        22        33        34
         8        22        33        34        34
         4        21        21        21        34
        16        21        21        22        34
        12        21        22        34        34
         8        21        21        33        34
         4        21        32        34        34
        12        18        20        21        33
         4        18        21        21        33
         8        18        21        32        33
        12        18        20        31        33
         4        18        29        31        33
         4        18        29        32        33
         4        15        17        20        31
         4        15        18        20        31
         8        15        18        29        31
         8        15        17        18        31
         4        15        16        18        31
         4        15        16        29        31
         4         3         4        17        18
         4         3        15        17        18
         8         3        15        16        18
        12         3         4         8        18
         4         3         7         8        18
         4         3         7        16        18
         4        19        21        22        34
         8        19        21        32        34
         4        19        30        32        34
         4        16        18        21        32
         4        16        19        21        32
         8        16        19        30        32
         8        16        18        29        32
         4        16        28        29        32
         4        16        28        30        32
         4        13        15        18        29
         4        13        16        18        29
         8        13        16        28        29
         8        13        15        16        29
         4        13        14        16        29
         4        13        14        28        29
         4         2         3        15        16
         4         2        13        15        16
         8         2        13        14        16
        12         2         3         7        16
         4         2         2         7        16
         4         2         2        14        16
         4        14        16        19        30
         8        14        16        28        30
         4        14        26        28        30
         4        10        13        16        28
         4        10        14        16        28
         8        10        14        26        28
         8        10        13        14        28
         4        10        10        14        28
         4        10        10        26        28
         4         1         2        13        14
         4         1        10        13        14
         8         1        10        10        14
         8         1         2         2        14
        12         1         2        10        14
         4         6        10        14        26
         4         6        10        10        26
         4         1         6        10        26
         4         6         6        10        10
        12         1         6         6        10
         6         1         1         6         6
         8         1         1         6        10
         4         1         1         2        10
         4         2         3         7        23
         4         3         8        23        24
        12         8        23        24        24
         8         8         8        11        24
         4         8        11        24        27
         4         8        24        24        27
         4         8         9        11        25
         4         8        11        24        25
         8        11        25        27        27
         8         9         9        12        24
         8         9        11        12        24
         4        11        12        24        24
         4        12        24        24        27
         4         8         9        11        23
         4         9        11        23        24
         8        11        23        24        24
         8         8         8        11        23
         4         7         7         8         8
        16         3         7         8        16
        12         7         8         8        16
         4         3         7         7        14
        12         3         7        14        16
        12         2         3        13        14
         4         3        13        14        28
         4         3        14        16        28
         4         2        10        13        26
         4         2        13        14        26
         4        13        26        28        28
         4        10        10        14        14
         4        10        13        14        14
         4        13        14        14        16
         4        14        14        16        28
         4         2         7        10        13
         4         7        10        13        14
        12         7        13        14        16
         8         2         3         7        13
         4         3         7         8        13
         4         7         8        13        16
         4        23        24        24        27
         8        24        24        27        27
         4        24        27        27        35
        12        24        25        27        27
         8        24        27        27        27
        16        27        27        27        35
         8        25        27        27        27
         8        27        27        27        27
         4        24        24        25        27
         4        24        24        24        27
         8        11        24        24        27
         4        11        24        27        27
         4         8        24        24        24
         4         8         8        19        24
         4         8        11        19        24
         4         7         8        16        23
         4         8         8        16        23
         8         8         8        16        19
         8         7         8        16        16
         4         8        16        16        30
         4         8        16        19        30
         4         7        14        16        28
         4         7        16        16        28
         4        16        28        28        36
         4        16        28        30        36
         4        14        26        28        28
         4        14        28        28        28
         4        28        28        28        36
         4        26        28        28        28
         4        28        28        28        30
         4        28        28        30        36
         4        14        16        26        28
         4        16        26        28        28
         8        16        28        28        30
        12        14        16        16        28
         4        16        16        19        28
         4        16        19        28        30
         4         7         8        14        16
         4         8        14        16        16
         8         8        16        16        19
         4         8         8        11        16
         4         8        11        16        19
        16        25        27        27        35
         4        12        25        27        35
         4         9        24        27        27
         8         9        25        27        27
         4         9        11        21        27
         4         9        12        21        27
         4         8        11        18        24
         4         9        11        18        24
         8         9        11        18        21
        12         8        11        18        19
         4        11        18        19        32
         4        11        18        21        32
         4         8        16        19        29
         4         8        18        19        29
         4        19        29        30        37
         4        19        29        32        37
         4        16        28        30        30
         4        16        29        30        30
         4        29        30        30        37
         8        28        30        30        36
         8        30        30        36        37
         4        30        30        37        37
         4        28        28        29        36
        12        28        29        30        36
        12        29        30        36        37
         4        29        30        32        36
         4        29        32        36        37
         4        16        18        28        30
         4        18        28        29        30
         8        18        29        30        32
         4        18        19        21        30
         4        18        21        30        32
         4         8         9        16        19
         4         9        16        18        19
         8         9        18        19        21
        12         8         9        11        19
         4         9        11        12        19
         4         9        12        19        21
         4         9        12        20        25
         8         9        12        20        21
         4        12        20        21        33
         4         9        18        21        31
         4         9        20        21        31
         4        21        31        32        38
         4        21        31        33        38
         4        18        29        32        32
         4        18        31        32        32
         4        31        32        32        38
         8        29        32        32        37
        12        32        32        37        39
         4        32        32        38        39
         8        29        30        32        37
         8        30        32        37        37
         4        32        37        37        38
         8        32        37        38        39
         4        29        30        31        37
         4        30        31        32        37
         8        31        32        37        38
         8        29        31        32        37
         4        31        32        33        37
         4        31        33        37        38
         4        18        20        29        32
         4        20        29        31        32
         8        18        20        21        32
         4        20        21        21        32
         4         9         9        18        21
         8         9        18        20        21
         8         9        20        21        21
         8         9         9        12        21
        16         9        11        12        21
         4         9        11        21        21
         4        20        31        33        33
         4        31        33        33        38
         4        33        33        38        40
         4        31        32        34        38
         4        31        33        34        38
         8        33        34        38        40
        12        32        34        38        39
        12        34        38        39        40
         4        34        38        40        40
         4        32        32        33        39
        12        32        33        34        39
        16        33        34        39        40
         8        32        33        38        39
         4        33        38        38        39
        12        33        38        39        40
         4        31        31        32        38
         8        31        32        33        38
         8        31        33        38        38
         8        31        31        33        38
         4        31        32        38        38
         4        18        31        31        33
         8        18        31        32        33
         4        18        19        21        33
         4        18        19        32        33
         4         8         9        20        21
         4         8        18        20        21
         8         8        18        19        21
         8         8         9        11        21
         4         8         8        11        21
         4         8         8        19        21
         8        33        34        34        40
         8        34        34        40        40
         8        34        39        40        40
        12        32        33        34        40
         4        32        34        34        40
         8        32        34        39        40
        12        32        33        38        40
         4        32        37        38        40
         4        32        37        39        40
         4        29        31        33        38
         4        29        32        33        38
         8        29        32        37        38
         8        29        31        32        38
         4        29        30        32        38
         4        29        30        37        38
         4        16        18        31        32
         4        16        29        31        32
         8        16        29        30        32
         8        16        18        19        32
         4        16        16        19        32
         4        16        16        30        32
         4         7         8        18        19
         4         7        16        18        19
         4         7        16        16        19
         4         7         8         8        19
         4         3         7         8        19
         4         3         7        16        19
         4        30        32        34        39
         8        30        32        37        39
         4        30        36        37        39
         4        28        29        32        37
         4        28        30        32        37
         8        28        30        36        37
         8        28        29        30        37
         4        28        28        30        37
         4        28        28        36        37
         4        14        16        29        30
         4        14        28        29        30
         4        14        28        28        30
         4        14        16        16        30
         4        13        14        16        30
         4        13        14        28        30
         4         2         7        16        16
         4         2        14        16        16
        12         2         3        13        16
         4         2        13        13        16
         4        26        28        30        36
         4        26        28        28        36
         4        14        26        28        36
         4        10        14        28        28
         4        10        26        28        28
         4         2        10        13        28
         4         2        10        14        28
        16         2        10        13        14
         4        10        10        13        14