       N       E                     dE             d eps       ncg     rms          rms(c)
DAV:   1     0.887506021924E+02    0.88751E+02   -0.92194E+03  1656   0.832E+02
DAV:   2    -0.147845268795E+01   -0.90229E+02   -0.84721E+02  1608   0.263E+02
DAV:   3    -0.292934794271E+01   -0.14509E+01   -0.14492E+01  1616   0.381E+01
DAV:   4    -0.294188155051E+01   -0.12534E-01   -0.12529E-01  1736   0.335E+00
DAV:   5    -0.294214337863E+01   -0.26183E-03   -0.26176E-03  1592   0.496E-01    0.644E+00
DAV:   6    -0.300176502187E+01   -0.59622E-01   -0.41745E+00  1472   0.335E+01    0.585E+00
DAV:   7    -0.249644553237E+01    0.50532E+00   -0.98102E-01  1576   0.157E+01    0.859E-01
DAV:   8    -0.250084658177E+01   -0.44010E-02   -0.53525E-02  1592   0.363E+00    0.566E-01
DAV:   9    -0.249748364563E+01    0.33629E-02   -0.11141E-02  1464   0.155E+00    0.169E-02
DAV:  10    -0.249752368814E+01   -0.40043E-04   -0.19820E-04  1520   0.148E-01
   1 F= -.24975237E+01 E0= -.24975237E+01  d E =0.000000E+00
