 vasp.5.2.12 11Nov11 complex                                                    
  
 executed on             LinuxIFC date 2020.04.16  21:24:59
 running on    8 nodes
 distr:  one band on    1 nodes,    8 groups


--------------------------------------------------------------------------------------------------------


 INCAR:
 POTCAR:   PAW_PBE Cu_pv 06Sep2000                

 ----------------------------------------------------------------------------- 
|                                                                             |
|           W    W    AA    RRRRR   N    N  II  N    N   GGGG   !!!           |
|           W    W   A  A   R    R  NN   N  II  NN   N  G    G  !!!           |
|           W    W  A    A  R    R  N N  N  II  N N  N  G       !!!           |
|           W WW W  AAAAAA  RRRRR   N  N N  II  N  N N  G  GGG   !            |
|           WW  WW  A    A  R   R   N   NN  II  N   NN  G    G                |
|           W    W  A    A  R    R  N    N  II  N    N   GGGG   !!!           |
|                                                                             |
|      For optimal performance we recommend that you set                      |
|        NPAR = approx SQRT( number of cores)                                 |
|      This will greatly improve the performance of VASP for DFT.             |
|      The default NPAR=number of cores might be grossly inefficient          |
|      on modern multi-core architectures or massively parallel machines.     |
|      Unfortunately you need to use the default for hybrid, GW and RPA       |
|      calculations.                                                          |
|                                                                             |
 ----------------------------------------------------------------------------- 

 POTCAR:   PAW_PBE Cu_pv 06Sep2000                
   VRHFIN =Cu: d10 p1                                                           
   LEXCH  = PE                                                                  
   EATOM  =  4119.1903 eV,  302.7519 Ry                                         
                                                                                
   TITEL  = PAW_PBE Cu_pv 06Sep2000                                             
   LULTRA =        F    use ultrasoft PP ?                                      
   IUNSCR =        1    unscreen: 0-lin 1-nonlin 2-no                           
   RPACOR =    1.500    partial core radius                                     
   POMASS =   63.546; ZVAL   =   17.000    mass and valenz                      
   RCORE  =    2.000    outmost cutoff radius                                   
   RWIGS  =    2.000; RWIGS  =    1.058    wigner-seitz radius (au A)           
   ENMAX  =  368.605; ENMIN  =  276.454 eV                                      
   RCLOC  =    1.304    cutoff for local pot                                    
   LCOR   =        T    correct aug charges                                     
   LPAW   =        T    paw PP                                                  
   EAUG   =  758.233                                                            
   DEXC   =    -.002                                                            
   RMAX   =    2.402    core radius for proj-oper                               
   RAUG   =    1.300    factor for augmentation sphere                          
   RDEP   =    2.025    radius for radial grids                                 
   QCUT   =   -5.205; QGAM   =   10.410    optimization parameters              
                                                                                
   Description                                                                  
     l     E      TYP  RCUT    TYP  RCUT                                        
     1   .000     23  1.700                                                     
     1  -.100     23  1.700                                                     
     2   .000     23  2.000                                                     
     2   .000     23  2.000                                                     
     0   .000     23  1.800                                                     
     0   .000     23  1.800                                                     
     3   .000      7   .000                                                     
  local pseudopotential read in
  partial core-charges read in
  atomic valenz-charges read in
  non local Contribution for L=           1  read in
    real space projection operators read in
  non local Contribution for L=           1  read in
    real space projection operators read in
  non local Contribution for L=           2  read in
    real space projection operators read in
  non local Contribution for L=           2  read in
    real space projection operators read in
  non local Contribution for L=           0  read in
    real space projection operators read in
  non local Contribution for L=           0  read in
    real space projection operators read in
    PAW grid and wavefunctions read in
 
   number of l-projection  operators is LMAX  =           6
   number of lm-projection operators is LMMAX =          18
 
 PAW_PBE Cu_pv 06Sep2000                :
 energy of atom  1       EATOM=-4119.1903
 kinetic energy error for atom=    1.1264 (will be added to EATOM!!)
 
 
 POSCAR: BCC Cu                                  
  positions in cartesian coordinates
  No initial velocities read in
 exchange correlation table for  LEXCH =        8
   RHO(1)=    0.500       N(1)  =     2000
   RHO(2)=  100.500       N(2)  =     4000
 


--------------------------------------------------------------------------------------------------------


 ion  position               nearest neighbor table
   1  0.000  0.000  0.000-
 
  LATTYP: Found a body centered cubic cell.
 ALAT       =     3.6100000000
  
  Lattice vectors:
  
 A1 = (   1.8050000000,   1.8050000000,  -1.8050000000)
 A2 = (  -1.8050000000,   1.8050000000,   1.8050000000)
 A3 = (   1.8050000000,  -1.8050000000,   1.8050000000)
 Subroutine PRICEL returns:
 Original cell was already a primitive cell.
 

Analysis of symmetry for initial positions (statically):

 Routine SETGRP: Setting up the symmetry group for a 
 body centered cubic supercell.


 Subroutine GETGRP returns: Found 48 space group operations
 (whereof 48 operations were pure point group operations)
 out of a pool of 48 trial point group operations.


The static configuration has the point symmetry O_h .

Analysis of symmetry for dynamics (positions and initial velocities):

 Subroutine DYNSYM returns: Found 48 space group operations
 (whereof 48 operations were pure point group operations)
 out of a pool of 48 trial space group operations
 (whereof 48 operations were pure point group operations)
 and found also     1 'primitive' translations


The dynamic configuration has the point symmetry O_h .
 
 
 KPOINTS: k-points                                

Automatic generation of k-mesh.
 
 Subroutine IBZKPT returns following result:
 ===========================================
 
 Found     44 irreducible k-points:
 
 Following reciprocal coordinates:
            Coordinates               Weight
  0.050000  0.050000  0.050000      8.000000
  0.150000  0.050000  0.050000     24.000000
  0.250000  0.050000  0.050000     24.000000
  0.350000  0.050000  0.050000     24.000000
  0.450000  0.050000  0.050000     12.000000
 -0.050000  0.050000  0.050000      6.000000
  0.150000  0.150000  0.050000     24.000000
  0.250000  0.150000  0.050000     48.000000
  0.350000  0.150000  0.050000     48.000000
 -0.150000  0.150000  0.050000     24.000000
  0.250000  0.250000  0.050000     24.000000
  0.350000  0.250000  0.050000     24.000000
 -0.250000  0.250000  0.050000     24.000000
 -0.150000  0.250000  0.050000     24.000000
 -0.350000  0.350000  0.050000     24.000000
 -0.250000  0.350000  0.050000     48.000000
 -0.450000  0.450000  0.050000     24.000000
 -0.350000  0.450000  0.050000     48.000000
 -0.250000  0.450000  0.050000     24.000000
 -0.450000 -0.450000  0.050000     24.000000
 -0.350000 -0.450000  0.050000     48.000000
 -0.350000 -0.350000  0.050000      8.000000
  0.150000  0.150000  0.150000      8.000000
  0.250000  0.150000  0.150000     24.000000
  0.350000  0.150000  0.150000     12.000000
 -0.150000  0.150000  0.150000      6.000000
  0.250000  0.250000  0.150000     24.000000
 -0.250000  0.250000  0.150000     24.000000
 -0.350000  0.350000  0.150000     24.000000
 -0.250000  0.350000  0.150000     24.000000
 -0.450000  0.450000  0.150000     24.000000
 -0.350000  0.450000  0.150000     48.000000
 -0.450000 -0.450000  0.150000     24.000000
 -0.350000 -0.450000  0.150000     24.000000
  0.250000  0.250000  0.250000      2.000000
 -0.250000  0.250000  0.250000      6.000000
 -0.350000  0.350000  0.250000     24.000000
 -0.450000  0.450000  0.250000     24.000000
 -0.350000  0.450000  0.250000     24.000000
 -0.450000 -0.450000  0.250000     24.000000
 -0.350000  0.350000  0.350000      6.000000
 -0.450000  0.450000  0.350000     24.000000
 -0.450000 -0.450000  0.350000      8.000000
 -0.450000  0.450000  0.450000      6.000000
 
 Following cartesian coordinates:
            Coordinates               Weight
  0.100000  0.100000  0.100000      8.000000
  0.200000  0.200000  0.100000     24.000000
  0.300000  0.300000  0.100000     24.000000
  0.400000  0.400000  0.100000     24.000000
  0.500000  0.500000  0.100000     12.000000
  0.000000  0.000000  0.100000      6.000000
  0.200000  0.300000  0.200000     24.000000
  0.300000  0.400000  0.200000     48.000000
  0.400000  0.500000  0.200000     48.000000
 -0.100000  0.000000  0.200000     24.000000
  0.300000  0.500000  0.300000     24.000000
  0.400000  0.600000  0.300000     24.000000
 -0.200000  0.000000  0.300000     24.000000
 -0.100000  0.100000  0.300000     24.000000
 -0.300000  0.000000  0.400000     24.000000
 -0.200000  0.100000  0.400000     48.000000
 -0.400000  0.000000  0.500000     24.000000
 -0.300000  0.100000  0.500000     48.000000
 -0.200000  0.200000  0.500000     24.000000
 -0.400000 -0.900000 -0.400000     24.000000
 -0.300000 -0.800000 -0.400000     48.000000
 -0.300000 -0.700000 -0.300000      8.000000
  0.300000  0.300000  0.300000      8.000000
  0.400000  0.400000  0.300000     24.000000
  0.500000  0.500000  0.300000     12.000000
  0.000000  0.000000  0.300000      6.000000
  0.400000  0.500000  0.400000     24.000000
 -0.100000  0.000000  0.400000     24.000000
 -0.200000  0.000000  0.500000     24.000000
 -0.100000  0.100000  0.500000     24.000000
 -0.300000  0.000000  0.600000     24.000000
 -0.200000  0.100000  0.600000     48.000000
 -0.300000 -0.900000 -0.300000     24.000000
 -0.200000 -0.800000 -0.300000     24.000000
  0.500000  0.500000  0.500000      2.000000
  0.000000  0.000000  0.500000      6.000000
 -0.100000  0.000000  0.600000     24.000000
 -0.200000  0.000000  0.700000     24.000000
 -0.100000  0.100000  0.700000     24.000000
 -0.200000 -0.900000 -0.200000     24.000000
  0.000000  0.000000  0.700000      6.000000
 -0.100000  0.000000  0.800000     24.000000
 -0.100000 -0.900000 -0.100000      8.000000
  0.000000  0.000000  0.900000      6.000000
 
 TETIRR: Found   1097 inequivalent tetrahedra from     6000


--------------------------------------------------------------------------------------------------------




 Dimension of arrays:
   k-points           NKPTS =     44   k-points in BZ     NKDIM =     44   number of bands    NBANDS=     16
   number of dos      NEDOS =    301   number of ions     NIONS =      1
   non local maximal  LDIM  =      6   non local SUM 2l+1 LMDIM =     18
   total plane-waves  NPLWV =   2744
   max r-space proj   IRMAX =      1   max aug-charges    IRDMAX=   2501
   dimension x,y,z NGX =    14 NGY =   14 NGZ =   14
   dimension x,y,z NGXF=    28 NGYF=   28 NGZF=   28
   support grid    NGXF=    28 NGYF=   28 NGZF=   28
   ions per type =               1
 NGX,Y,Z   is equivalent  to a cutoff of   7.44,  7.44,  7.44 a.u.
 NGXF,Y,Z  is equivalent  to a cutoff of  14.89, 14.89, 14.89 a.u.


 I would recommend the setting:
   dimension x,y,z NGX =    13 NGY =   13 NGZ =   13
 SYSTEM =  unknown system                          
 POSCAR =  BCC Cu                                  

 Startparameter for this run:
   NWRITE =      2    write-flag & timer
   PREC   = normal    normal or accurate (medium, high low for compatibility)
   ISTART =      0    job   : 0-new  1-cont  2-samecut
   ICHARG =      2    charge: 1-file 2-atom 10-const
   ISPIN  =      1    spin polarized calculation?
   LNONCOLLINEAR =      F non collinear calculations
   LSORBIT =      F    spin-orbit coupling
   INIWAV =      1    electr: 0-lowe 1-rand  2-diag
   LASPH  =      F    aspherical Exc in radial PAW
   METAGGA=      F    non-selfconsistent MetaGGA calc.

 Electronic Relaxation 1
   ENCUT  =  300.0 eV  22.05 Ry    4.70 a.u.   4.42  4.42  4.42*2*pi/ulx,y,z
   ENINI  =  300.0     initial cutoff
   ENAUG  =  758.2 eV  augmentation charge cutoff
   NELM   =     40;   NELMIN=  2; NELMDL= -5     # of ELM steps 
   EDIFF  = 0.1E-03   stopping-criterion for ELM
   LREAL  =      F    real-space projection
   NLSPLINE    = F    spline interpolate recip. space projectors
   LCOMPAT=      F    compatible to vasp.4.4
   GGA_COMPAT  = T    GGA compatible to vasp.4.4-vasp.4.6
   LMAXPAW     = -100 max onsite density
   LMAXMIX     =    2 max onsite mixed and CHGCAR
   VOSKOWN=      0    Vosko Wilk Nusair interpolation
   ROPT   =    0.00000
 Ionic relaxation
   EDIFFG = 0.1E-02   stopping-criterion for IOM
   NSW    =      0    number of steps for IOM
   NBLOCK =      1;   KBLOCK =      1    inner block; outer block 
   IBRION =     -1    ionic relax: 0-MD 1-quasi-New 2-CG
   NFREE  =      0    steps in history (QN), initial steepest desc. (CG)
   ISIF   =      2    stress and relaxation
   IWAVPR =     10    prediction:  0-non 1-charg 2-wave 3-comb
   ISYM   =      2    0-nonsym 1-usesym 2-fastsym
   LCORR  =      T    Harris-Foulkes like correction to forces

   POTIM  = 0.5000    time-step for ionic-motion
   TEIN   =    0.0    initial temperature
   TEBEG  =    0.0;   TEEND  =   0.0 temperature during run
   SMASS  =  -3.00    Nose mass-parameter (am)
   estimated Nose-frequenzy (Omega)   =  0.10E-29 period in steps =****** mass=  -0.223E-27a.u.
   SCALEE = 1.0000    scale energy and forces
   NPACO  =    256;   APACO  = 16.0  distance and # of slots for P.C.
   PSTRESS=    0.0 pullay stress

  Mass of Ions in am
   POMASS =  63.55
  Ionic Valenz
   ZVAL   =  17.00
  Atomic Wigner-Seitz radii
   RWIGS  =  -1.00
  virtual crystal weights 
   VCA    =   1.00
   NELECT =      17.0000    total number of electrons
   NUPDOWN=      -1.0000    fix difference up-down

 DOS related values:
   EMIN   =  10.00;   EMAX   =-10.00  energy-range for DOS
   EFERMI =   0.00
   ISMEAR =    -5;   SIGMA  =   0.20  broadening in eV -4-tet -1-fermi 0-gaus

 Electronic relaxation 2 (details)
   IALGO  =     38    algorithm
   LDIAG  =      T    sub-space diagonalisation (order eigenvalues)
   LSUBROT=      T    optimize rotation matrix (better conditioning)
   TURBO    =      0    0=normal 1=particle mesh
   IRESTART =      0    0=no restart 2=restart with 2 vectors
   NREBOOT  =      0    no. of reboots
   NMIN     =      0    reboot dimension
   EREF     =   0.00    reference energy to select bands
   IMIX   =      4    mixing-type and parameters
     AMIX     =   0.40;   BMIX     =  1.00
     AMIX_MAG =   1.60;   BMIX_MAG =  1.00
     AMIN     =   0.10
     WC   =   100.;   INIMIX=   1;  MIXPRE=   1

 Intra band minimization:
   WEIMIN = 0.0000     energy-eigenvalue tresh-hold
   EBREAK =  0.16E-05  absolut break condition
   DEPER  =   0.30     relativ break condition  

   TIME   =   0.40     timestep for ELM

  volume/ion in A,a.u.               =      23.52       158.74
  Fermi-wavevector in a.u.,A,eV,Ry     =   1.469131  2.776256 29.366089  2.158347
  Thomas-Fermi vector in A             =   2.584546
 
 Write flags
   LWAVE  =      T    write WAVECAR
   LCHARG =      T    write CHGCAR
   LVTOT  =      F    write LOCPOT, total local potential
   LVHAR  =      F    write LOCPOT, Hartree potential only
   LELF   =      F    write electronic localiz. function (ELF)
   LORBIT =      0    0 simple, 1 ext, 2 COOP (PROOUT)


 Dipole corrections
   LMONO  =      F    monopole corrections only (constant potential shift)
   LDIPOL =      F    correct potential (dipole corrections)
   IDIPOL =      0    1-x, 2-y, 3-z, 4-all directions 
   EPSILON=  1.0000000 bulk dielectric constant

 Exchange correlation treatment:
   GGA     =    --    GGA type
   LEXCH   =     8    internal setting for exchange type
   VOSKOWN=      0    Vosko Wilk Nusair interpolation
   LHFCALC =     F    Hartree Fock is set to
   LHFONE  =     F    Hartree Fock one center treatment
   AEXX    =    0.0000 exact exchange contribution

 Linear response parameters
   LEPSILON=     F    determine dielectric tensor
   LRPA    =     F    only Hartree local field effects (RPA)
   LNABLA  =     F    use nabla operator in PAW spheres
   LVEL    =     F    velocity operator in full k-point grid
   LINTERFAST=   F  fast interpolation
   KINTER  =     0    interpolate to denser k-point grid
   CSHIFT  =0.1000    complex shift for real part using Kramers Kronig
   OMEGAMAX=  -1.0    maximum frequency
   RTIME   =    0.100 relaxation time in fs

 Orbital magnetization related:
   ORBITALMAG=     F  switch on orbital magnetization
   LCHIMAG   =     F  perturbation theory with respect to B field
   DQ        =  0.001000  dq finite difference perturbation B field



--------------------------------------------------------------------------------------------------------


 Static calculation
 charge density and potential will be updated during run
 non-spin polarized calculation
 Variant of blocked Davidson
 Davidson routine will perform the subspace rotation
 perform sub-space diagonalisation
    after iterative eigenvector-optimisation
 modified Broyden-mixing scheme, WC =      100.0
 initial mixing is a Kerker type mixing with AMIX =  0.4000 and BMIX =      1.0000
 Hartree-type preconditioning will be used
 using additional bands            7
 reciprocal scheme for non local part
 use partial core corrections
 calculate Harris-corrections to forces 
   (improved forces if not selfconsistent)
 use gradient corrections 
 use of overlap-Matrix (Vanderbilt PP)
 Fermi weights with tetrahedron method with Bloechl corrections


--------------------------------------------------------------------------------------------------------


  energy-cutoff  :      300.00
  volume of cell :       23.52
      direct lattice vectors                 reciprocal lattice vectors
     1.805000000  1.805000000 -1.805000000     0.277008310  0.277008310  0.000000000
    -1.805000000  1.805000000  1.805000000     0.000000000  0.277008310  0.277008310
     1.805000000 -1.805000000  1.805000000     0.277008310  0.000000000  0.277008310

  length of vectors
     3.126351708  3.126351708  3.126351708     0.391748909  0.391748909  0.391748909


 
 k-points in units of 2pi/SCALE and weight: k-points                                
   0.10000000  0.10000000  0.10000000       0.008
   0.20000000  0.20000000  0.10000000       0.024
   0.30000000  0.30000000  0.10000000       0.024
   0.40000000  0.40000000  0.10000000       0.024
   0.50000000  0.50000000  0.10000000       0.012
   0.00000000  0.00000000  0.10000000       0.006
   0.20000000  0.30000000  0.20000000       0.024
   0.30000000  0.40000000  0.20000000       0.048
   0.40000000  0.50000000  0.20000000       0.048
  -0.10000000  0.00000000  0.20000000       0.024
   0.30000000  0.50000000  0.30000000       0.024
   0.40000000  0.60000000  0.30000000       0.024
  -0.20000000  0.00000000  0.30000000       0.024
  -0.10000000  0.10000000  0.30000000       0.024
  -0.30000000  0.00000000  0.40000000       0.024
  -0.20000000  0.10000000  0.40000000       0.048
  -0.40000000  0.00000000  0.50000000       0.024
  -0.30000000  0.10000000  0.50000000       0.048
  -0.20000000  0.20000000  0.50000000       0.024
  -0.40000000 -0.90000000 -0.40000000       0.024
  -0.30000000 -0.80000000 -0.40000000       0.048
  -0.30000000 -0.70000000 -0.30000000       0.008
   0.30000000  0.30000000  0.30000000       0.008
   0.40000000  0.40000000  0.30000000       0.024
   0.50000000  0.50000000  0.30000000       0.012
   0.00000000  0.00000000  0.30000000       0.006
   0.40000000  0.50000000  0.40000000       0.024
  -0.10000000  0.00000000  0.40000000       0.024
  -0.20000000  0.00000000  0.50000000       0.024
  -0.10000000  0.10000000  0.50000000       0.024
  -0.30000000  0.00000000  0.60000000       0.024
  -0.20000000  0.10000000  0.60000000       0.048
  -0.30000000 -0.90000000 -0.30000000       0.024
  -0.20000000 -0.80000000 -0.30000000       0.024
   0.50000000  0.50000000  0.50000000       0.002
   0.00000000  0.00000000  0.50000000       0.006
  -0.10000000  0.00000000  0.60000000       0.024
  -0.20000000  0.00000000  0.70000000       0.024
  -0.10000000  0.10000000  0.70000000       0.024
  -0.20000000 -0.90000000 -0.20000000       0.024
   0.00000000  0.00000000  0.70000000       0.006
  -0.10000000  0.00000000  0.80000000       0.024
  -0.10000000 -0.90000000 -0.10000000       0.008
   0.00000000  0.00000000  0.90000000       0.006
 
 k-points in reciprocal lattice and weights: k-points                                
   0.05000000  0.05000000  0.05000000       0.008
   0.15000000  0.05000000  0.05000000       0.024
   0.25000000  0.05000000  0.05000000       0.024
   0.35000000  0.05000000  0.05000000       0.024
   0.45000000  0.05000000  0.05000000       0.012
  -0.05000000  0.05000000  0.05000000       0.006
   0.15000000  0.15000000  0.05000000       0.024
   0.25000000  0.15000000  0.05000000       0.048
   0.35000000  0.15000000  0.05000000       0.048
  -0.15000000  0.15000000  0.05000000       0.024
   0.25000000  0.25000000  0.05000000       0.024
   0.35000000  0.25000000  0.05000000       0.024
  -0.25000000  0.25000000  0.05000000       0.024
  -0.15000000  0.25000000  0.05000000       0.024
  -0.35000000  0.35000000  0.05000000       0.024
  -0.25000000  0.35000000  0.05000000       0.048
  -0.45000000  0.45000000  0.05000000       0.024
  -0.35000000  0.45000000  0.05000000       0.048
  -0.25000000  0.45000000  0.05000000       0.024
  -0.45000000 -0.45000000  0.05000000       0.024
  -0.35000000 -0.45000000  0.05000000       0.048
  -0.35000000 -0.35000000  0.05000000       0.008
   0.15000000  0.15000000  0.15000000       0.008
   0.25000000  0.15000000  0.15000000       0.024
   0.35000000  0.15000000  0.15000000       0.012
  -0.15000000  0.15000000  0.15000000       0.006
   0.25000000  0.25000000  0.15000000       0.024
  -0.25000000  0.25000000  0.15000000       0.024
  -0.35000000  0.35000000  0.15000000       0.024
  -0.25000000  0.35000000  0.15000000       0.024
  -0.45000000  0.45000000  0.15000000       0.024
  -0.35000000  0.45000000  0.15000000       0.048
  -0.45000000 -0.45000000  0.15000000       0.024
  -0.35000000 -0.45000000  0.15000000       0.024
   0.25000000  0.25000000  0.25000000       0.002
  -0.25000000  0.25000000  0.25000000       0.006
  -0.35000000  0.35000000  0.25000000       0.024
  -0.45000000  0.45000000  0.25000000       0.024
  -0.35000000  0.45000000  0.25000000       0.024
  -0.45000000 -0.45000000  0.25000000       0.024
  -0.35000000  0.35000000  0.35000000       0.006
  -0.45000000  0.45000000  0.35000000       0.024
  -0.45000000 -0.45000000  0.35000000       0.008
  -0.45000000  0.45000000  0.45000000       0.006
 
 position of ions in fractional coordinates (direct lattice) 
   0.00000000  0.00000000  0.00000000
 
 position of ions in cartesian coordinates  (Angst):
   0.00000000  0.00000000  0.00000000
 


--------------------------------------------------------------------------------------------------------


 k-point  1 :  0.05000.05000.0500  plane waves:     279
 k-point  2 :  0.15000.05000.0500  plane waves:     278
 k-point  3 :  0.25000.05000.0500  plane waves:     281
 k-point  4 :  0.35000.05000.0500  plane waves:     280
 k-point  5 :  0.45000.05000.0500  plane waves:     274
 k-point  6 :  -.05000.05000.0500  plane waves:     281
 k-point  7 :  0.15000.15000.0500  plane waves:     280
 k-point  8 :  0.25000.15000.0500  plane waves:     279
 k-point  9 :  0.35000.15000.0500  plane waves:     279
 k-point 10 :  -.15000.15000.0500  plane waves:     283
 k-point 11 :  0.25000.25000.0500  plane waves:     274
 k-point 12 :  0.35000.25000.0500  plane waves:     276
 k-point 13 :  -.25000.25000.0500  plane waves:     279
 k-point 14 :  -.15000.25000.0500  plane waves:     280
 k-point 15 :  -.35000.35000.0500  plane waves:     279
 k-point 16 :  -.25000.35000.0500  plane waves:     277
 k-point 17 :  -.45000.45000.0500  plane waves:     277
 k-point 18 :  -.35000.45000.0500  plane waves:     280
 k-point 19 :  -.25000.45000.0500  plane waves:     282
 k-point 20 :  -.4500-.45000.0500  plane waves:     276
 k-point 21 :  -.3500-.45000.0500  plane waves:     279
 k-point 22 :  -.3500-.35000.0500  plane waves:     285
 k-point 23 :  0.15000.15000.1500  plane waves:     273
 k-point 24 :  0.25000.15000.1500  plane waves:     278
 k-point 25 :  0.35000.15000.1500  plane waves:     280
 k-point 26 :  -.15000.15000.1500  plane waves:     277
 k-point 27 :  0.25000.25000.1500  plane waves:     284
 k-point 28 :  -.25000.25000.1500  plane waves:     279
 k-point 29 :  -.35000.35000.1500  plane waves:     277
 k-point 30 :  -.25000.35000.1500  plane waves:     281
 k-point 31 :  -.45000.45000.1500  plane waves:     281
 k-point 32 :  -.35000.45000.1500  plane waves:     277
 k-point 33 :  -.4500-.45000.1500  plane waves:     276
 k-point 34 :  -.3500-.45000.1500  plane waves:     278
 k-point 35 :  0.25000.25000.2500  plane waves:     276
 k-point 36 :  -.25000.25000.2500  plane waves:     277
 k-point 37 :  -.35000.35000.2500  plane waves:     276
 k-point 38 :  -.45000.45000.2500  plane waves:     271
 k-point 39 :  -.35000.45000.2500  plane waves:     268
 k-point 40 :  -.4500-.45000.2500  plane waves:     268
 k-point 41 :  -.35000.35000.3500  plane waves:     265
 k-point 42 :  -.45000.45000.3500  plane waves:     265
 k-point 43 :  -.4500-.45000.3500  plane waves:     261
 k-point 44 :  -.45000.45000.4500  plane waves:     265

 maximum and minimum number of plane-waves per node :       285      261

 maximum number of plane-waves:       285
 maximum index in each direction: 
   IXMAX=    4   IYMAX=    4   IZMAX=    4
   IXMIN=   -4   IYMIN=   -4   IZMIN=   -4

 WARNING: aliasing errors must be expected set NGX to  18 to avoid them
 WARNING: aliasing errors must be expected set NGY to  18 to avoid them
 WARNING: aliasing errors must be expected set NGZ to  18 to avoid them
 aliasing errors are usually negligible using standard VASP settings
 and one can safely disregard these warnings

 serial   3D FFT for wavefunctions
 parallel 3D FFT for charge:
    minimum data exchange during FFTs selected (reduces bandwidth)


 total amount of memory used by VASP on root node    32672. kBytes
========================================================================

   base      :      30000. kBytes
   nonl-proj :       1829. kBytes
   fftplans  :        119. kBytes
   grid      :        270. kBytes
   one-center:         15. kBytes
   wavefun   :        439. kBytes
 
 Broyden mixing: mesh for mixing (old mesh)
   NGX =  9   NGY =  9   NGZ =  9
  (NGX  = 28   NGY  = 28   NGZ  = 28)
  gives a total of    729 points

 initial charge density was supplied:
 charge density of overlapping atoms calculated
 number of electron      17.0000000 magnetization 
 keeping initial charge density in first step


--------------------------------------------------------------------------------------------------------


 Maximum index for augmentation-charges          375 (set IRDMAX)


--------------------------------------------------------------------------------------------------------


 First call to EWALD:  gamma=   0.619
 Maximum number of real-space cells 3x 3x 3
 Maximum number of reciprocal cells 3x 3x 3

    FEWALD:  cpu time    0.00: real time    0.00


----------------------------------------- Iteration    1(   1)  ---------------------------------------


    POTLOK:  cpu time    0.01: real time    0.01
    SETDIJ:  cpu time    0.00: real time    0.00
     EDDAV:  cpu time    0.28: real time    0.28
 BZINTS: Fermi energy:  8.146388; 17.000000 electrons
         Band energy:-293.129721;  BLOECHL correction: -0.331838
       DOS:  cpu time    0.06: real time    0.06
    --------------------------------------------
      LOOP:  cpu time    0.35: real time    0.36

 eigenvalue-minimisations  :  1656
 total energy-change (2. order) : 0.8875060E+02  (-0.9219410E+03)
 number of electron      17.0000000 magnetization 
 augmentation part       17.0000000 magnetization 

 Free energy of the ion-electron system (eV)
  ---------------------------------------------------
  alpha Z        PSCENC =        76.91062858
  Ewald energy   TEWEN  =     -2097.61912421
  -1/2 Hartree   DENC   =     -1673.34884316
  -exchange  EXHF       =         0.00000000
  -V(xc)+E(xc)   XCENC  =       106.85310439
  PAW double counting   =      3230.69773108    -3379.67703955
  entropy T*S    EENTRO =         0.00000000
  eigenvalues    EBANDS =      -293.12972135
  atomic energy  EATOM  =      4118.06386640
  ---------------------------------------------------
  free energy    TOTEN  =        88.75060219 eV

  energy without entropy =       88.75060219  energy(sigma->0) =       88.75060219


--------------------------------------------------------------------------------------------------------




----------------------------------------- Iteration    1(   2)  ---------------------------------------


     EDDAV:  cpu time    0.29: real time    0.29
 BZINTS: Fermi energy:  2.260892; 17.000000 electrons
         Band energy:-383.358776;  BLOECHL correction: -0.053427
       DOS:  cpu time    0.06: real time    0.06
    --------------------------------------------
      LOOP:  cpu time    0.35: real time    0.35

 eigenvalue-minimisations  :  1608
 total energy-change (2. order) :-0.9022905E+02  (-0.8472098E+02)
 number of electron      17.0000000 magnetization 
 augmentation part       17.0000000 magnetization 

 Free energy of the ion-electron system (eV)
  ---------------------------------------------------
  alpha Z        PSCENC =        76.91062858
  Ewald energy   TEWEN  =     -2097.61912421
  -1/2 Hartree   DENC   =     -1673.34884316
  -exchange  EXHF       =         0.00000000
  -V(xc)+E(xc)   XCENC  =       106.85310439
  PAW double counting   =      3230.69773108    -3379.67703955
  entropy T*S    EENTRO =         0.00000000
  eigenvalues    EBANDS =      -383.35877623
  atomic energy  EATOM  =      4118.06386640
  ---------------------------------------------------
  free energy    TOTEN  =        -1.47845269 eV

  energy without entropy =       -1.47845269  energy(sigma->0) =       -1.47845269


--------------------------------------------------------------------------------------------------------




----------------------------------------- Iteration    1(   3)  ---------------------------------------


     EDDAV:  cpu time    0.30: real time    0.31
 BZINTS: Fermi energy:  2.203732; 17.000000 electrons
         Band energy:-384.809671;  BLOECHL correction: -0.054992
       DOS:  cpu time    0.06: real time    0.06
    --------------------------------------------
      LOOP:  cpu time    0.36: real time    0.37

 eigenvalue-minimisations  :  1616
 total energy-change (2. order) :-0.1450895E+01  (-0.1449215E+01)
 number of electron      17.0000000 magnetization 
 augmentation part       17.0000000 magnetization 

 Free energy of the ion-electron system (eV)
  ---------------------------------------------------
  alpha Z        PSCENC =        76.91062858
  Ewald energy   TEWEN  =     -2097.61912421
  -1/2 Hartree   DENC   =     -1673.34884316
  -exchange  EXHF       =         0.00000000
  -V(xc)+E(xc)   XCENC  =       106.85310439
  PAW double counting   =      3230.69773108    -3379.67703955
  entropy T*S    EENTRO =         0.00000000
  eigenvalues    EBANDS =      -384.80967149
  atomic energy  EATOM  =      4118.06386640
  ---------------------------------------------------
  free energy    TOTEN  =        -2.92934794 eV

  energy without entropy =       -2.92934794  energy(sigma->0) =       -2.92934794


--------------------------------------------------------------------------------------------------------




----------------------------------------- Iteration    1(   4)  ---------------------------------------


     EDDAV:  cpu time    0.33: real time    0.35
 BZINTS: Fermi energy:  2.203556; 17.000000 electrons
         Band energy:-384.822205;  BLOECHL correction: -0.055000
       DOS:  cpu time    0.05: real time    0.05
    --------------------------------------------
      LOOP:  cpu time    0.38: real time    0.41

 eigenvalue-minimisations  :  1736
 total energy-change (2. order) :-0.1253361E-01  (-0.1252946E-01)
 number of electron      17.0000000 magnetization 
 augmentation part       17.0000000 magnetization 

 Free energy of the ion-electron system (eV)
  ---------------------------------------------------
  alpha Z        PSCENC =        76.91062858
  Ewald energy   TEWEN  =     -2097.61912421
  -1/2 Hartree   DENC   =     -1673.34884316
  -exchange  EXHF       =         0.00000000
  -V(xc)+E(xc)   XCENC  =       106.85310439
  PAW double counting   =      3230.69773108    -3379.67703955
  entropy T*S    EENTRO =         0.00000000
  eigenvalues    EBANDS =      -384.82220510
  atomic energy  EATOM  =      4118.06386640
  ---------------------------------------------------
  free energy    TOTEN  =        -2.94188155 eV

  energy without entropy =       -2.94188155  energy(sigma->0) =       -2.94188155


--------------------------------------------------------------------------------------------------------




----------------------------------------- Iteration    1(   5)  ---------------------------------------


     EDDAV:  cpu time    0.28: real time    0.28
 BZINTS: Fermi energy:  2.203555; 17.000000 electrons
         Band energy:-384.822467;  BLOECHL correction: -0.055000
       DOS:  cpu time    0.05: real time    0.05
    CHARGE:  cpu time    0.01: real time    0.01
    MIXING:  cpu time    0.00: real time    0.00
    --------------------------------------------
      LOOP:  cpu time    0.34: real time    0.34

 eigenvalue-minimisations  :  1592
 total energy-change (2. order) :-0.2618281E-03  (-0.2617582E-03)
 number of electron      17.0000385 magnetization 
 augmentation part       10.4668216 magnetization 

 Broyden mixing:
  rms(total) = 0.64419E+00    rms(broyden)= 0.64374E+00
  rms(prec ) = 0.20522E+01
  weight for this iteration     100.00

 Free energy of the ion-electron system (eV)
  ---------------------------------------------------
  alpha Z        PSCENC =        76.91062858
  Ewald energy   TEWEN  =     -2097.61912421
  -1/2 Hartree   DENC   =     -1673.34884316
  -exchange  EXHF       =         0.00000000
  -V(xc)+E(xc)   XCENC  =       106.85310439
  PAW double counting   =      3230.69773108    -3379.67703955
  entropy T*S    EENTRO =         0.00000000
  eigenvalues    EBANDS =      -384.82246692
  atomic energy  EATOM  =      4118.06386640
  ---------------------------------------------------
  free energy    TOTEN  =        -2.94214338 eV

  energy without entropy =       -2.94214338  energy(sigma->0) =       -2.94214338


--------------------------------------------------------------------------------------------------------




----------------------------------------- Iteration    1(   6)  ---------------------------------------


    POTLOK:  cpu time    0.00: real time    0.00
    SETDIJ:  cpu time    0.00: real time    0.00
     EDDAV:  cpu time    0.26: real time    0.26
 BZINTS: Fermi energy:  0.927496; 17.000000 electrons
         Band energy:-438.457568;  BLOECHL correction: -0.096828
       DOS:  cpu time    0.05: real time    0.05
    CHARGE:  cpu time    0.01: real time    0.01
    MIXING:  cpu time    0.00: real time    0.00
    --------------------------------------------
      LOOP:  cpu time    0.33: real time    0.33

 eigenvalue-minimisations  :  1472
 total energy-change (2. order) :-0.5962164E-01  (-0.4174546E+00)
 number of electron      17.0000416 magnetization 
 augmentation part       11.2320252 magnetization 

 Broyden mixing:
  rms(total) = 0.58506E+00    rms(broyden)= 0.58468E+00
  rms(prec ) = 0.17166E+01
  weight for this iteration     100.00

 eigenvalues of (default mixing * dielectric matrix)
  average eigenvalue GAMMA=   0.5228
  0.5228

 Free energy of the ion-electron system (eV)
  ---------------------------------------------------
  alpha Z        PSCENC =        76.91062858
  Ewald energy   TEWEN  =     -2097.61912421
  -1/2 Hartree   DENC   =     -1623.34032947
  -exchange  EXHF       =         0.00000000
  -V(xc)+E(xc)   XCENC  =       105.15710710
  PAW double counting   =      3150.55030388    -3294.26664887
  entropy T*S    EENTRO =         0.00000000
  eigenvalues    EBANDS =      -438.45756843
  atomic energy  EATOM  =      4118.06386640
  ---------------------------------------------------
  free energy    TOTEN  =        -3.00176502 eV

  energy without entropy =       -3.00176502  energy(sigma->0) =       -3.00176502


--------------------------------------------------------------------------------------------------------




----------------------------------------- Iteration    1(   7)  ---------------------------------------


    POTLOK:  cpu time    0.00: real time    0.00
    SETDIJ:  cpu time    0.00: real time    0.00
     EDDAV:  cpu time    0.27: real time    0.27
 BZINTS: Fermi energy:  1.307103; 17.000000 electrons
         Band energy:-413.288092;  BLOECHL correction: -0.083960
       DOS:  cpu time    0.06: real time    0.06
    CHARGE:  cpu time    0.01: real time    0.01
    MIXING:  cpu time    0.00: real time    0.00
    --------------------------------------------
      LOOP:  cpu time    0.35: real time    0.35

 eigenvalue-minimisations  :  1576
 total energy-change (2. order) : 0.5053195E+00  (-0.9810199E-01)
 number of electron      17.0000404 magnetization 
 augmentation part       10.9331557 magnetization 

 Broyden mixing:
  rms(total) = 0.85873E-01    rms(broyden)= 0.85779E-01
  rms(prec ) = 0.23902E+00
  weight for this iteration     100.00

 eigenvalues of (default mixing * dielectric matrix)
  average eigenvalue GAMMA=   1.0415
  0.5992  1.4837

 Free energy of the ion-electron system (eV)
  ---------------------------------------------------
  alpha Z        PSCENC =        76.91062858
  Ewald energy   TEWEN  =     -2097.61912421
  -1/2 Hartree   DENC   =     -1645.57041149
  -exchange  EXHF       =         0.00000000
  -V(xc)+E(xc)   XCENC  =       105.94072928
  PAW double counting   =      3191.20780182    -3338.14184373
  entropy T*S    EENTRO =         0.00000000
  eigenvalues    EBANDS =      -413.28809219
  atomic energy  EATOM  =      4118.06386640
  ---------------------------------------------------
  free energy    TOTEN  =        -2.49644553 eV

  energy without entropy =       -2.49644553  energy(sigma->0) =       -2.49644553


--------------------------------------------------------------------------------------------------------




----------------------------------------- Iteration    1(   8)  ---------------------------------------


    POTLOK:  cpu time    0.00: real time    0.00
    SETDIJ:  cpu time    0.00: real time    0.00
     EDDAV:  cpu time    0.28: real time    0.28
 BZINTS: Fermi energy:  1.412932; 17.000000 electrons
         Band energy:-408.083384;  BLOECHL correction: -0.079001
       DOS:  cpu time    0.06: real time    0.06
    CHARGE:  cpu time    0.01: real time    0.01
    MIXING:  cpu time    0.00: real time    0.00
    --------------------------------------------
      LOOP:  cpu time    0.35: real time    0.35

 eigenvalue-minimisations  :  1592
 total energy-change (2. order) :-0.4401049E-02  (-0.5352459E-02)
 number of electron      17.0000401 magnetization 
 augmentation part       10.8511286 magnetization 

 Broyden mixing:
  rms(total) = 0.56574E-01    rms(broyden)= 0.56477E-01
  rms(prec ) = 0.18283E+00
  weight for this iteration     100.00

 eigenvalues of (default mixing * dielectric matrix)
  average eigenvalue GAMMA=   1.4159
  2.7726  0.8050  0.6701

 Free energy of the ion-electron system (eV)
  ---------------------------------------------------
  alpha Z        PSCENC =        76.91062858
  Ewald energy   TEWEN  =     -2097.61912421
  -1/2 Hartree   DENC   =     -1650.45198790
  -exchange  EXHF       =         0.00000000
  -V(xc)+E(xc)   XCENC  =       106.13170656
  PAW double counting   =      3207.14870183    -3354.60125390
  entropy T*S    EENTRO =         0.00000000
  eigenvalues    EBANDS =      -408.08338394
  atomic energy  EATOM  =      4118.06386640
  ---------------------------------------------------
  free energy    TOTEN  =        -2.50084658 eV

  energy without entropy =       -2.50084658  energy(sigma->0) =       -2.50084658


--------------------------------------------------------------------------------------------------------




----------------------------------------- Iteration    1(   9)  ---------------------------------------


    POTLOK:  cpu time    0.00: real time    0.00
    SETDIJ:  cpu time    0.00: real time    0.00
     EDDAV:  cpu time    0.25: real time    0.25
 BZINTS: Fermi energy:  1.334046; 17.000000 electrons
         Band energy:-410.924823;  BLOECHL correction: -0.081326
       DOS:  cpu time    0.05: real time    0.05
    CHARGE:  cpu time    0.01: real time    0.01
    MIXING:  cpu time    0.00: real time    0.00
    --------------------------------------------
      LOOP:  cpu time    0.32: real time    0.32

 eigenvalue-minimisations  :  1464
 total energy-change (2. order) : 0.3362936E-02  (-0.1114074E-02)
 number of electron      17.0000403 magnetization 
 augmentation part       10.8887052 magnetization 

 Broyden mixing:
  rms(total) = 0.16878E-02    rms(broyden)= 0.15829E-02
  rms(prec ) = 0.34119E-02
  weight for this iteration     100.00

 eigenvalues of (default mixing * dielectric matrix)
  average eigenvalue GAMMA=   1.5084
  2.7253  0.6694  0.8142  1.8245

 Free energy of the ion-electron system (eV)
  ---------------------------------------------------
  alpha Z        PSCENC =        76.91062858
  Ewald energy   TEWEN  =     -2097.61912421
  -1/2 Hartree   DENC   =     -1647.81988260
  -exchange  EXHF       =         0.00000000
  -V(xc)+E(xc)   XCENC  =       106.05865442
  PAW double counting   =      3207.59554340    -3354.76234707
  entropy T*S    EENTRO =         0.00000000
  eigenvalues    EBANDS =      -410.92482258
  atomic energy  EATOM  =      4118.06386640
  ---------------------------------------------------
  free energy    TOTEN  =        -2.49748365 eV

  energy without entropy =       -2.49748365  energy(sigma->0) =       -2.49748365


--------------------------------------------------------------------------------------------------------




----------------------------------------- Iteration    1(  10)  ---------------------------------------


    POTLOK:  cpu time    0.00: real time    0.00
    SETDIJ:  cpu time    0.00: real time    0.00
     EDDAV:  cpu time    0.27: real time    0.27
 BZINTS: Fermi energy:  1.336686; 17.000000 electrons
         Band energy:-410.810869;  BLOECHL correction: -0.081222
       DOS:  cpu time    0.05: real time    0.05
    --------------------------------------------
      LOOP:  cpu time    0.33: real time    0.33

 eigenvalue-minimisations  :  1520
 total energy-change (2. order) :-0.4004251E-04  (-0.1982046E-04)
 number of electron      17.0000403 magnetization 
 augmentation part       10.8887052 magnetization 

 Free energy of the ion-electron system (eV)
  ---------------------------------------------------
  alpha Z        PSCENC =        76.91062858
  Ewald energy   TEWEN  =     -2097.61912421
  -1/2 Hartree   DENC   =     -1647.93148312
  -exchange  EXHF       =         0.00000000
  -V(xc)+E(xc)   XCENC  =       106.06241348
  PAW double counting   =      3207.56199460    -3354.73495044
  entropy T*S    EENTRO =         0.00000000
  eigenvalues    EBANDS =      -410.81086899
  atomic energy  EATOM  =      4118.06386640
  ---------------------------------------------------
  free energy    TOTEN  =        -2.49752369 eV

  energy without entropy =       -2.49752369  energy(sigma->0) =       -2.49752369


--------------------------------------------------------------------------------------------------------




 average (electrostatic) potential at core
  the test charge radii are     0.8297
  (the norm of the test charge is              1.0000)
       1 -84.3459
 
 
 
 E-fermi :   1.3367     XC(G=0):  -9.3875     alpha+bet : -6.3696


 k-point   1 :       0.0500    0.0500    0.0500
  band No.  band energies     occupation 
      1     -67.5325      2.00000
      2     -67.4832      2.00000
      3     -67.4830      2.00000
      4      -3.6747      2.00000
      5      -0.5801      2.00000
      6      -0.5800      2.00000
      7      -0.4677      2.00000
      8      -0.1986      2.00000
      9      -0.1985      2.00000
     10      14.8215      0.00000
     11      15.6005      0.00000
     12      15.6006      0.00000
     13      18.9890      0.00000
     14      18.9892      0.00000
     15      20.2591      0.00000
     16      21.3841      0.00000

 k-point   2 :       0.1500    0.0500    0.0500
  band No.  band energies     occupation 
      1     -67.5227      2.00000
      2     -67.5094      2.00000
      3     -67.4990      2.00000
      4      -2.9885      2.00000
      5      -0.6463      2.00000
      6      -0.5947      2.00000
      7      -0.3095      2.00000
      8      -0.2357      2.00000
      9      -0.1929      2.00000
     10      11.5781      0.00000
     11      13.5583      0.00000
     12      14.1595      0.00000
     13      18.6470      0.00000
     14      18.8066      0.00000
     15      20.3294      0.00000
     16      22.2857      0.00000

 k-point   3 :       0.2500    0.0500    0.0500
  band No.  band energies     occupation 
      1     -67.5404      2.00000
      2     -67.5327      2.00000
      3     -67.5153      2.00000
      4      -1.9780      2.00000
      5      -0.7265      2.00000
      6      -0.5370      2.00000
      7      -0.2454      2.00000
      8      -0.1886      2.00000
      9      -0.0742      2.00613
     10       8.1814      0.00000
     11      12.2506      0.00000
     12      13.0542      0.00000
     13      17.9516      0.00000
     14      17.9578      0.00000
     15      21.4701      0.00000
     16      23.2877      0.00000

 k-point   4 :       0.3500    0.0500    0.0500
  band No.  band energies     occupation 
      1     -67.5476      2.00000
      2     -67.5451      2.00000
      3     -67.5029      2.00000
      4      -1.3013      2.00000
      5      -0.7803      2.00000
      6      -0.2246      2.00000
      7      -0.1969      2.00000
      8      -0.1796      2.00000
      9       0.6426      1.89633
     10       5.1689      0.00000
     11      11.4259      0.00000
     12      12.3695      0.00000
     13      17.3943      0.00000
     14      17.4957      0.00000
     15      23.1134      0.00000
     16      24.3749      0.00000

 k-point   5 :       0.4500    0.0500    0.0500
  band No.  band energies     occupation 
      1     -67.5271      2.00000
      2     -67.5090      2.00000
      3     -67.4988      2.00000
      4      -1.1928      2.00000
      5      -0.7977      2.00000
      6      -0.2050      2.00000
      7      -0.1845      2.00000
      8      -0.0510      2.00000
      9       2.2189     -0.09477
     10       2.9493      0.00000
     11      11.1425      0.00000
     12      12.1399      0.00000
     13      17.2054      0.00000
     14      17.3487      0.00000
     15      24.4716      0.00000
     16      25.0931      0.00000

 k-point   6 :      -0.0500    0.0500    0.0500
  band No.  band energies     occupation 
      1     -67.5217      2.00000
      2     -67.4834      2.00000
      3     -67.4823      2.00000
      4      -3.9098      2.00000
      5      -0.5631      2.00000
      6      -0.5628      2.00000
      7      -0.5450      2.00000
      8      -0.1825      2.00000
      9      -0.1763      2.00000
     10      16.7080      0.00000
     11      16.7389      0.00000
     12      16.7389      0.00000
     13      18.4768      0.00000
     14      19.4676      0.00000
     15      19.4678      0.00000
     16      21.0430      0.00000

 k-point   7 :       0.1500    0.1500    0.0500
  band No.  band energies     occupation 
      1     -67.5345      2.00000
      2     -67.5218      2.00000
      3     -67.5152      2.00000
      4      -2.1451      2.00000
      5      -0.6842      2.00000
      6      -0.6587      2.00000
      7      -0.2439      2.00000
      8      -0.1903      2.00000
      9      -0.0650      2.00331
     10       9.8078      0.00000
     11      10.6775      0.00000
     12      12.5859      0.00000
     13      19.6390      0.00000
     14      19.6977      0.00000
     15      21.3578      0.00000
     16      23.0419      0.00000

 k-point   8 :       0.2500    0.1500    0.0500
  band No.  band energies     occupation 
      1     -67.5372      2.00000
      2     -67.5334      2.00000
      3     -67.5060      2.00000
      4      -1.2772      2.00000
      5      -0.7392      2.00000
      6      -0.5772      2.00000
      7      -0.2360      2.00000
      8      -0.1795      2.00000
      9       0.5058      1.99326
     10       6.9537      0.00000
     11       9.3593      0.00000
     12      11.6568      0.00000
     13      19.0506      0.00000
     14      20.7355      0.00000
     15      21.6015      0.00000
     16      25.4037      0.00000

 k-point   9 :       0.3500    0.1500    0.0500
  band No.  band energies     occupation 
      1     -67.5364      2.00000
      2     -67.5283      2.00000
      3     -67.5172      2.00000
      4      -1.0595      2.00000
      5      -0.7750      2.00000
      6      -0.3415      2.00000
      7      -0.2173      2.00000
      8      -0.1619      2.00000
      9       1.9590      0.10731
     10       4.2214      0.00000
     11       8.8171      0.00000
     12      11.1876      0.00000
     13      18.6906      0.00000
     14      20.7909      0.00000
     15      22.9535      0.00000
     16      24.8471      0.00000

 k-point  10 :      -0.1500    0.1500    0.0500
  band No.  band energies     occupation 
      1     -67.5276      2.00000
      2     -67.5199      2.00000
      3     -67.5184      2.00000
      4      -3.4418      2.00000
      5      -0.6049      2.00000
      6      -0.5603      2.00000
      7      -0.4544      2.00000
      8      -0.2538      2.00000
      9      -0.1775      2.00000
     10      13.3941      0.00000
     11      15.1031      0.00000
     12      15.7622      0.00000
     13      17.6571      0.00000
     14      18.4241      0.00000
     15      19.2005      0.00000
     16      22.8755      0.00000

 k-point  11 :       0.2500    0.2500    0.0500
  band No.  band energies     occupation 
      1     -67.5117      2.00000
      2     -67.5034      2.00000
      3     -67.5000      2.00000
      4      -0.9321      2.00000
      5      -0.7054      2.00000
      6      -0.5580      2.00000
      7      -0.2162      2.00000
      8      -0.1640      2.00000
      9       1.7981      0.23094
     10       5.9194      0.00000
     11       6.7298      0.00000
     12      10.9721      0.00000
     13      20.5244      0.00000
     14      20.6196      0.00000
     15      24.6024      0.00000
     16      24.7001      0.00000

 k-point  12 :       0.3500    0.2500    0.0500
  band No.  band energies     occupation 
      1     -67.5231      2.00000
      2     -67.5103      2.00000
      3     -67.5071      2.00000
      4      -0.8953      2.00000
      5      -0.7032      2.00000
      6      -0.5177      2.00000
      7      -0.2020      2.00000
      8      -0.1659      2.00000
      9       3.6556     -0.02234
     10       3.8667      0.00000
     11       6.1443      0.00000
     12      10.7441      0.00000
     13      20.3950      0.00000
     14      22.4835      0.00000
     15      22.5018      0.00000
     16      24.9196      0.00000

 k-point  13 :      -0.2500    0.2500    0.0500
  band No.  band energies     occupation 
      1     -67.5346      2.00000
      2     -67.5175      2.00000
      3     -67.5030      2.00000
      4      -2.5560      2.00000
      5      -0.6737      2.00000
      6      -0.5350      2.00000
      7      -0.2772      2.00000
      8      -0.2745      2.00000
      9      -0.1674      2.00000
     10       9.8131      0.00000
     11      13.5881      0.00000
     12      14.5321      0.00000
     13      17.2537      0.00000
     14      17.3115      0.00000
     15      19.5782      0.00000
     16      24.0820      0.00000

 k-point  14 :      -0.1500    0.2500    0.0500
  band No.  band energies     occupation 
      1     -67.5312      2.00000
      2     -67.5270      2.00000
      3     -67.5052      2.00000
      4      -2.7648      2.00000
      5      -0.6146      2.00000
      6      -0.5847      2.00000
      7      -0.3198      2.00000
      8      -0.3053      2.00000
      9      -0.1521      2.00000
     10      11.5254      0.00000
     11      12.1765      0.00000
     12      15.1561      0.00000
     13      16.9639      0.00000
     14      17.9093      0.00000
     15      20.5458      0.00000
     16      22.6029      0.00000

 k-point  15 :      -0.3500    0.3500    0.0500
  band No.  band energies     occupation 
      1     -67.5348      2.00000
      2     -67.5275      2.00000
      3     -67.5133      2.00000
      4      -1.5758      2.00000
      5      -0.7371      2.00000
      6      -0.3355      2.00000
      7      -0.2173      2.00000
      8      -0.1027      2.00000
      9      -0.0373      2.06396
     10       6.5748      0.00000
     11      12.4745      0.00000
     12      13.6262      0.00000
     13      16.5733      0.00000
     14      16.8015      0.00000
     15      20.7719      0.00000
     16      25.0164      0.00000

 k-point  16 :      -0.2500    0.3500    0.0500
  band No.  band energies     occupation 
      1     -67.5282      2.00000
      2     -67.5139      2.00000
      3     -67.5049      2.00000
      4      -1.7902      2.00000
      5      -0.6668      2.00000
      6      -0.5570      2.00000
      7      -0.2984      2.00000
      8      -0.1638      2.00000
      9      -0.0063      2.01910
     10       8.3812      0.00000
     11      10.7206      0.00000
     12      14.2240      0.00000
     13      16.6940      0.00000
     14      18.1254      0.00000
     15      20.4602      0.00000
     16      25.0055      0.00000

 k-point  17 :      -0.4500    0.4500    0.0500
  band No.  band energies     occupation 
      1     -67.5350      2.00000
      2     -67.5248      2.00000
      3     -67.5137      2.00000
      4      -1.2427      2.00000
      5      -0.7794      2.00000
      6      -0.2521      2.00000
      7      -0.2122      2.00000
      8       0.0235      2.00000
      9       1.3609      0.83826
     10       3.8043      0.00000
     11      11.8834      0.00000
     12      13.1557      0.00000
     13      16.2066      0.00000
     14      16.5549      0.00000
     15      22.4464      0.00000
     16      24.3577      0.00000

 k-point  18 :      -0.3500    0.4500    0.0500
  band No.  band energies     occupation 
      1     -67.5472      2.00000
      2     -67.5435      2.00000
      3     -67.5073      2.00000
      4      -1.1907      2.00000
      5      -0.7256      2.00000
      6      -0.4117      2.00000
      7      -0.2486      2.00000
      8      -0.0906      2.00000
      9       0.8668      1.59341
     10       5.3853      0.00000
     11       9.9415      0.00000
     12      13.5168      0.00000
     13      16.3086      0.00000
     14      19.1275      0.00000
     15      20.3174      0.00000
     16      23.9383      0.00000

 k-point  19 :      -0.2500    0.4500    0.0500
  band No.  band energies     occupation 
      1     -67.5589      2.00000
      2     -67.5407      2.00000
      3     -67.5224      2.00000
      4      -1.1184      2.00000
      5      -0.6901      2.00000
      6      -0.5670      2.00000
      7      -0.2961      2.00000
      8      -0.1449      2.00000
      9       0.7632      1.71731
     10       7.0923      0.00000
     11       7.8778      0.00000
     12      13.8105      0.00000
     13      17.2571      0.00000
     14      17.7043      0.00000
     15      23.3602      0.00000
     16      23.6273      0.00000

 k-point  20 :      -0.4500   -0.4500    0.0500
  band No.  band energies     occupation 
      1     -67.5519      2.00000
      2     -67.5176      2.00000
      3     -67.4883      2.00000
      4      -1.1010      2.00000
      5      -0.7395      2.00000
      6      -0.3592      2.00000
      7      -0.2435      2.00000
      8      -0.0195      2.00000
      9       2.5676     -0.14977
     10       3.0777      0.00000
     11       9.6785      0.00000
     12      13.2690      0.00000
     13      16.1709      0.00000
     14      19.3827      0.00000
     15      21.6327      0.00000
     16      21.8137      0.00000

 k-point  21 :      -0.3500   -0.4500    0.0500
  band No.  band energies     occupation 
      1     -67.5599      2.00000
      2     -67.5260      2.00000
      3     -67.5027      2.00000
      4      -0.9409      2.00000
      5      -0.7010      2.00000
      6      -0.5211      2.00000
      7      -0.2462      2.00000
      8      -0.1115      2.00000
      9       2.3998     -0.06034
     10       4.6531      0.00000
     11       7.0510      0.00000
     12      13.4668      0.00000
     13      17.1457      0.00000
     14      19.0593      0.00000
     15      21.1541      0.00000
     16      23.6289      0.00000

 k-point  22 :      -0.3500   -0.3500    0.0500
  band No.  band energies     occupation 
      1     -67.5726      2.00000
      2     -67.5436      2.00000
      3     -67.5422      2.00000
      4      -0.8547      2.00000
      5      -0.6551      2.00000
      6      -0.6548      2.00000
      7      -0.1752      2.00000
      8      -0.1752      2.00000
      9       4.0785     -0.00676
     10       4.6529      0.00000
     11       4.6535      0.00000
     12      13.3860      0.00000
     13      18.8103      0.00000
     14      18.8108      0.00000
     15      19.0111      0.00000
     16      27.5381      0.00000

 k-point  23 :       0.1500    0.1500    0.1500
  band No.  band energies     occupation 
      1     -67.5189      2.00000
      2     -67.4916      2.00000
      3     -67.4915      2.00000
      4      -1.3073      2.00000
      5      -0.7264      2.00000
      6      -0.7263      2.00000
      7      -0.1960      2.00000
      8      -0.1960      2.00000
      9       0.4553      2.05303
     10       8.2902      0.00000
     11       9.5612      0.00000
     12       9.5613      0.00000
     13      22.2410      0.00000
     14      22.2411      0.00000
     15      23.0178      0.00000
     16      23.6383      0.00000

 k-point  24 :       0.2500    0.1500    0.1500
  band No.  band energies     occupation 
      1     -67.5353      2.00000
      2     -67.5183      2.00000
      3     -67.5105      2.00000
      4      -0.8972      2.00000
      5      -0.7730      2.00000
      6      -0.5949      2.00000
      7      -0.1968      2.00000
      8      -0.1893      2.00000
      9       1.6102      0.41817
     10       5.9679      0.00000
     11       8.1574      0.00000
     12       8.8796      0.00000
     13      22.5153      0.00000
     14      22.5203      0.00000
     15      24.1981      0.00000
     16      25.2151      0.00000

 k-point  25 :       0.3500    0.1500    0.1500
  band No.  band energies     occupation 
      1     -67.5343      2.00000
      2     -67.5256      2.00000
      3     -67.5223      2.00000
      4      -0.8944      2.00000
      5      -0.7854      2.00000
      6      -0.4565      2.00000
      7      -0.1922      2.00000
      8      -0.1899      2.00000
      9       3.4885     -0.03471
     10       3.5866      0.00000
     11       7.8347      0.00000
     12       8.6509      0.00000
     13      22.3368      0.00000
     14      22.4122      0.00000
     15      25.6455      0.00000
     16      26.0433      0.00000

 k-point  26 :      -0.1500    0.1500    0.1500
  band No.  band energies     occupation 
      1     -67.5116      2.00000
      2     -67.5005      2.00000
      3     -67.4994      2.00000
      4      -2.9827      2.00000
      5      -0.5373      2.00000
      6      -0.5370      2.00000
      7      -0.4514      2.00000
      8      -0.3233      2.00000
      9      -0.1286      2.00000
     10      13.4763      0.00000
     11      13.4769      0.00000
     12      13.6721      0.00000
     13      15.2520      0.00000
     14      20.2805      0.00000
     15      20.2806      0.00000
     16      21.7145      0.00000

 k-point  27 :       0.2500    0.2500    0.1500
  band No.  band energies     occupation 
      1     -67.5585      2.00000
      2     -67.5329      2.00000
      3     -67.5324      2.00000
      4      -0.8244      2.00000
      5      -0.7144      2.00000
      6      -0.6147      2.00000
      7      -0.1989      2.00000
      8      -0.1816      2.00000
      9       3.2954     -0.02235
     10       5.2576      0.00000
     11       6.0083      0.00000
     12       8.1032      0.00000
     13      24.2169      0.00000
     14      24.3214      0.00000
     15      26.1566      0.00000
     16      26.2734      0.00000

 k-point  28 :      -0.2500    0.2500    0.1500
  band No.  band energies     occupation 
      1     -67.5395      2.00000
      2     -67.5087      2.00000
      3     -67.5042      2.00000
      4      -2.1321      2.00000
      5      -0.5659      2.00000
      6      -0.5307      2.00000
      7      -0.3835      2.00000
      8      -0.2950      2.00000
      9      -0.0853      2.00069
     10      10.2026      0.00000
     11      12.0092      0.00000
     12      13.0619      0.00000
     13      15.1711      0.00000
     14      19.6484      0.00000
     15      20.1862      0.00000
     16      24.1102      0.00000

 k-point  29 :      -0.3500    0.3500    0.1500
  band No.  band energies     occupation 
      1     -67.5490      2.00000
      2     -67.5056      2.00000
      3     -67.4997      2.00000
      4      -1.2829      2.00000
      5      -0.6232      2.00000
      6      -0.5387      2.00000
      7      -0.3032      2.00000
      8      -0.1051      2.00000
      9       0.3432      2.05064
     10       7.0053      0.00000
     11      10.9438      0.00000
     12      12.3227      0.00000
     13      16.2899      0.00000
     14      18.8601      0.00000
     15      19.6652      0.00000
     16      23.3698      0.00000

 k-point  30 :      -0.2500    0.3500    0.1500
  band No.  band energies     occupation 
      1     -67.5766      2.00000
      2     -67.5205      2.00000
      3     -67.5022      2.00000
      4      -1.3287      2.00000
      5      -0.6169      2.00000
      6      -0.5258      2.00000
      7      -0.3797      2.00000
      8      -0.1826      2.00000
      9       0.2470      2.05769
     10       8.7407      0.00000
     11       9.3790      0.00000
     12      13.2602      0.00000
     13      14.5096      0.00000
     14      18.9987      0.00000
     15      22.6065      0.00000
     16      22.9842      0.00000

 k-point  31 :      -0.4500    0.4500    0.1500
  band No.  band energies     occupation 
      1     -67.5777      2.00000
      2     -67.5242      2.00000
      3     -67.5199      2.00000
      4      -1.0624      2.00000
      5      -0.6674      2.00000
      6      -0.4903      2.00000
      7      -0.3061      2.00000
      8       0.0161      2.00000
      9       1.8849      0.15230
     10       4.2163      0.00000
     11      10.3791      0.00000
     12      11.9234      0.00000
     13      17.6266      0.00000
     14      18.4488      0.00000
     15      19.5075      0.00000
     16      21.0067      0.00000

 k-point  32 :      -0.3500    0.4500    0.1500
  band No.  band energies     occupation 
      1     -67.5707      2.00000
      2     -67.4999      2.00000
      3     -67.4984      2.00000
      4      -0.9425      2.00000
      5      -0.6685      2.00000
      6      -0.5502      2.00000
      7      -0.3054      2.00000
      8      -0.0693      2.00000
      9       1.4764      0.62717
     10       6.0252      0.00000
     11       8.3711      0.00000
     12      13.0117      0.00000
     13      15.5338      0.00000
     14      18.4170      0.00000
     15      20.3159      0.00000
     16      22.7602      0.00000

 k-point  33 :      -0.4500   -0.4500    0.1500
  band No.  band energies     occupation 
      1     -67.5694      2.00000
      2     -67.5272      2.00000
      3     -67.4684      2.00000
      4      -0.9141      2.00000
      5      -0.6116      2.00000
      6      -0.6062      2.00000
      7      -0.2837      2.00000
      8      -0.0101      2.00000
      9       3.4723     -0.06492
     10       3.5112      0.00000
     11       8.0973      0.00000
     12      12.8299      0.00000
     13      16.8041      0.00000
     14      17.9619      0.00000
     15      18.8356      0.00000
     16      22.6000      0.00000

 k-point  34 :      -0.3500   -0.4500    0.1500
  band No.  band energies     occupation 
      1     -67.5627      2.00000
      2     -67.5180      2.00000
      3     -67.5082      2.00000
      4      -0.7719      2.00000
      5      -0.7442      2.00000
      6      -0.6273      2.00000
      7      -0.1952      2.00000
      8      -0.0866      2.00000
      9       3.2482     -0.04427
     10       5.3223      0.00000
     11       5.8648      0.00000
     12      14.1148      0.00000
     13      15.5801      0.00000
     14      17.2784      0.00000
     15      18.6239      0.00000
     16      26.3391      0.00000

 k-point  35 :       0.2500    0.2500    0.2500
  band No.  band energies     occupation 
      1     -67.5133      2.00000
      2     -67.5132      2.00000
      3     -67.5116      2.00000
      4      -0.7014      2.00000
      5      -0.7010      2.00000
      6      -0.7009      2.00000
      7      -0.1752      2.00000
      8      -0.1752      2.00000
      9       4.4462      0.00000
     10       5.7673      0.00000
     11       5.7679      0.00000
     12       5.7679      0.00000
     13      27.5103      0.00000
     14      27.5105      0.00000
     15      27.5109      0.00000
     16      28.4293      0.00000

 k-point  36 :      -0.2500    0.2500    0.2500
  band No.  band energies     occupation 
      1     -67.5690      2.00000
      2     -67.4873      2.00000
      3     -67.4863      2.00000
      4      -1.4304      2.00000
      5      -0.5472      2.00000
      6      -0.4385      2.00000
      7      -0.4382      2.00000
      8      -0.2848      2.00000
      9       0.1343      2.02842
     10      10.5415      0.00000
     11      10.5422      0.00000
     12      11.1892      0.00000
     13      12.9383      0.00000
     14      22.3569      0.00000
     15      22.3570      0.00000
     16      22.7437      0.00000

 k-point  37 :      -0.3500    0.3500    0.2500
  band No.  band energies     occupation 
      1     -67.5624      2.00000
      2     -67.5014      2.00000
      3     -67.4879      2.00000
      4      -0.9627      2.00000
      5      -0.6804      2.00000
      6      -0.4283      2.00000
      7      -0.3464      2.00000
      8      -0.1354      2.00000
      9       1.0163      1.34111
     10       7.8147      0.00000
     11       9.4689      0.00000
     12      11.0711      0.00000
     13      13.1657      0.00000
     14      19.7011      0.00000
     15      21.8705      0.00000
     16      22.6039      0.00000

 k-point  38 :      -0.4500    0.4500    0.2500
  band No.  band energies     occupation 
      1     -67.5418      2.00000
      2     -67.5025      2.00000
      3     -67.4602      2.00000
      4      -0.8730      2.00000
      5      -0.7280      2.00000
      6      -0.4333      2.00000
      7      -0.3139      2.00000
      8       0.0071      2.00000
      9       2.7622     -0.06763
     10       5.0733      0.00000
     11       8.8990      0.00000
     12      10.8333      0.00000
     13      14.7467      0.00000
     14      17.0684      0.00000
     15      21.4611      0.00000
     16      22.3339      0.00000

 k-point  39 :      -0.3500    0.4500    0.2500
  band No.  band energies     occupation 
      1     -67.5207      2.00000
      2     -67.4898      2.00000
      3     -67.4603      2.00000
      4      -0.8465      2.00000
      5      -0.7819      2.00000
      6      -0.4011      2.00000
      7      -0.2142      2.00000
      8      -0.0572      2.00000
      9       2.5077     -0.06707
     10       6.8440      0.00000
     11       7.3519      0.00000
     12      11.6268      0.00000
     13      12.9074      0.00000
     14      16.8572      0.00000
     15      21.6303      0.00000
     16      25.6092      0.00000

 k-point  40 :      -0.4500   -0.4500    0.2500
  band No.  band energies     occupation 
      1     -67.5096      2.00000
      2     -67.4997      2.00000
      3     -67.4645      2.00000
      4      -0.8462      2.00000
      5      -0.8095      2.00000
      6      -0.4126      2.00000
      7      -0.1596      2.00000
      8      -0.0172      2.00000
      9       4.3765     -0.00300
     10       4.7495      0.00000
     11       6.8788      0.00000
     12      11.8229      0.00000
     13      14.1157      0.00000
     14      14.7560      0.00000
     15      21.4380      0.00000
     16      25.8172      0.00000

 k-point  41 :      -0.3500    0.3500    0.3500
  band No.  band energies     occupation 
      1     -67.4862      2.00000
      2     -67.4771      2.00000
      3     -67.4761      2.00000
      4      -0.8851      2.00000
      5      -0.7950      2.00000
      6      -0.2227      2.00000
      7      -0.2225      2.00000
      8      -0.1301      2.00000
      9       2.2446     -0.02637
     10       8.3726      0.00000
     11       8.3734      0.00000
     12       9.6645      0.00000
     13      11.4929      0.00000
     14      16.6667      0.00000
     15      25.3044      0.00000
     16      25.3652      0.00000

 k-point  42 :      -0.4500    0.4500    0.3500
  band No.  band energies     occupation 
      1     -67.4899      2.00000
      2     -67.4856      2.00000
      3     -67.4737      2.00000
      4      -0.9037      2.00000
      5      -0.8795      2.00000
      6      -0.1983      2.00000
      7      -0.1512      2.00000
      8      -0.0187      2.00000
      9       4.0215     -0.01315
     10       6.2989      0.00000
     11       7.7816      0.00000
     12       9.8897      0.00000
     13      11.9787      0.00000
     14      14.0698      0.00000
     15      24.8919      0.00000
     16      25.7372      0.00000

 k-point  43 :      -0.4500   -0.4500    0.3500
  band No.  band energies     occupation 
      1     -67.4727      2.00000
      2     -67.4714      2.00000
      3     -67.4565      2.00000
      4      -0.9152      2.00000
      5      -0.9152      2.00000
      6      -0.1775      2.00000
      7      -0.0320      2.00000
      8      -0.0317      2.00000
      9       5.6012      0.00000
     10       6.2306      0.00000
     11       6.2316      0.00000
     12      10.3442      0.00000
     13      12.1354      0.00000
     14      12.1356      0.00000
     15      25.0342      0.00000
     16      29.3391      0.00000

 k-point  44 :      -0.4500    0.4500    0.4500
  band No.  band energies     occupation 
      1     -67.4912      2.00000
      2     -67.4903      2.00000
      3     -67.4750      2.00000
      4      -0.9661      2.00000
      5      -0.9587      2.00000
      6      -0.0483      2.00000
      7      -0.0481      2.00000
      8      -0.0313      2.00000
      9       5.6881      0.00000
     10       7.1725      0.00000
     11       7.1733      0.00000
     12       8.7367      0.00000
     13      10.8036      0.00000
     14      11.7176      0.00000
     15      28.1691      0.00000
     16      29.1360      0.00000


--------------------------------------------------------------------------------------------------------


 soft charge-density along one line, spin component           1
         0         1         2         3         4         5         6         7         8         9
 total charge-density along one line
 
 pseudopotential strength for first ion, spin component:           1
-70.776   0.000   0.000  34.034   0.000   0.000   0.000   0.000
  0.000 -70.776   0.000   0.000  34.034   0.000   0.000   0.000
  0.000   0.000 -70.776   0.000   0.000  34.034   0.000   0.000
 34.034   0.000   0.000 -10.460   0.000   0.000   0.000   0.000
  0.000  34.034   0.000   0.000 -10.460   0.000   0.000   0.000
  0.000   0.000  34.034   0.000   0.000 -10.460   0.000   0.000
  0.000   0.000   0.000   0.000   0.000   0.000  -9.786   0.000
  0.000   0.000   0.000   0.000   0.000   0.000   0.000  -9.786
  0.000   0.000   0.000   0.000   0.000   0.000   0.000   0.000
  0.000   0.000   0.000   0.000   0.000   0.000   0.000   0.000
  0.000   0.000   0.000   0.000   0.000   0.000   0.000   0.000
  0.000   0.000   0.000   0.000   0.000   0.000   0.164   0.000
  0.000   0.000   0.000   0.000   0.000   0.000   0.000   0.164
  0.000   0.000   0.000   0.000   0.000   0.000   0.000   0.000
  0.000   0.000   0.000   0.000   0.000   0.000   0.000   0.000
  0.000   0.000   0.000   0.000   0.000   0.000   0.000   0.000
  0.000   0.000   0.000   0.000   0.000   0.000   0.000   0.000
  0.000   0.000   0.000   0.000   0.000   0.000   0.000   0.000
 total augmentation occupancy for first ion, spin component:           1
  2.041   0.000   0.000   0.045   0.000   0.000   0.000   0.000   0.000   0.000   0.000   0.000   0.000   0.000   0.000   0.000
  0.000   2.041   0.000   0.000   0.045   0.000   0.000   0.000   0.000   0.000   0.000   0.000   0.000   0.000   0.000   0.000
  0.000   0.000   2.041   0.000   0.000   0.045   0.000   0.000   0.000   0.000   0.000   0.000   0.000   0.000   0.000   0.000
  0.045   0.000   0.000   0.034   0.000   0.000   0.000   0.000   0.000   0.000   0.000   0.000   0.000   0.000   0.000   0.000
  0.000   0.045   0.000   0.000   0.034   0.000   0.000   0.000   0.000   0.000   0.000   0.000   0.000   0.000   0.000   0.000
  0.000   0.000   0.045   0.000   0.000   0.034   0.000   0.000   0.000   0.000   0.000   0.000   0.000   0.000   0.000   0.000
  0.000   0.000   0.000   0.000   0.000   0.000   1.968   0.000   0.000   0.000   0.000  -0.004   0.000   0.000   0.000   0.000
  0.000   0.000   0.000   0.000   0.000   0.000   0.000   1.968   0.000   0.000   0.000   0.000  -0.004   0.000   0.000   0.000
  0.000   0.000   0.000   0.000   0.000   0.000   0.000   0.000   1.988   0.000   0.000   0.000   0.000  -0.021   0.000   0.000
  0.000   0.000   0.000   0.000   0.000   0.000   0.000   0.000   0.000   1.968   0.000   0.000   0.000   0.000  -0.004   0.000
  0.000   0.000   0.000   0.000   0.000   0.000   0.000   0.000   0.000   0.000   1.988   0.000   0.000   0.000   0.000  -0.021
  0.000   0.000   0.000   0.000   0.000   0.000  -0.004   0.000   0.000   0.000   0.000   0.010   0.000   0.000   0.000   0.000
  0.000   0.000   0.000   0.000   0.000   0.000   0.000  -0.004   0.000   0.000   0.000   0.000   0.010   0.000   0.000   0.000
  0.000   0.000   0.000   0.000   0.000   0.000   0.000   0.000  -0.021   0.000   0.000   0.000   0.000   0.010   0.000   0.000
  0.000   0.000   0.000   0.000   0.000   0.000   0.000   0.000   0.000  -0.004   0.000   0.000   0.000   0.000   0.010   0.000
  0.000   0.000   0.000   0.000   0.000   0.000   0.000   0.000   0.000   0.000  -0.021   0.000   0.000   0.000   0.000   0.010
  0.000   0.000   0.000   0.000   0.000   0.000   0.000   0.000   0.000   0.000   0.000   0.000   0.000   0.000   0.000   0.000
  0.000   0.000   0.000   0.000   0.000   0.000   0.000   0.000   0.000   0.000   0.000   0.000   0.000   0.000   0.000   0.000


------------------------ aborting loop because EDIFF is reached ----------------------------------------


    CHARGE:  cpu time    0.01: real time    0.01
    FORLOC:  cpu time    0.00: real time    0.00
    FORNL :  cpu time    0.01: real time    0.01
    STRESS:  cpu time    0.10: real time    0.10
    FORCOR:  cpu time    0.00: real time    0.00
    FORHAR:  cpu time    0.00: real time    0.00
    MIXING:  cpu time    0.00: real time    0.00

  FORCE on cell =-STRESS in cart. coord.  units (eV):
  Direction    XX          YY          ZZ          XY          YZ          ZX
  --------------------------------------------------------------------------------------
  Alpha Z    76.91063    76.91063    76.91063
  Ewald    -699.20635  -699.20635  -699.20635     0.00000     0.00000     0.00000
  Hartree   549.18881   549.18881   549.18881     0.00000     0.00000    -0.00001
  E(xc)    -133.43090  -133.43090  -133.43090    -0.00087    -0.00087    -0.00083
  Local     -99.37458   -99.37456   -99.37458    -0.00249    -0.00249    -0.00312
  n-local  -108.07919  -108.44142  -107.64114    -0.60033    -0.62037     1.25129
  augment   185.98268   185.98272   185.98267     0.00106     0.00106     0.00099
  Kinetic   214.15786   214.19497   215.75349     0.15725     0.42174    -0.36067
  Fock        0.00000     0.00000     0.00000     0.00000     0.00000     0.00000
  -------------------------------------------------------------------------------------
  Total     -13.28151   -13.28151   -13.28151     0.00000     0.00000     0.00000
  in kB    -904.62033  -904.62033  -904.62033     0.00000     0.00000     0.00000
  external pressure =     -904.62 kB  Pullay stress =        0.00 kB


 VOLUME and BASIS-vectors are now :
 -----------------------------------------------------------------------------
  energy-cutoff  :      300.00
  volume of cell :       23.52
      direct lattice vectors                 reciprocal lattice vectors
     1.805000000  1.805000000 -1.805000000     0.277008310  0.277008310  0.000000000
    -1.805000000  1.805000000  1.805000000     0.000000000  0.277008310  0.277008310
     1.805000000 -1.805000000  1.805000000     0.277008310  0.000000000  0.277008310

  length of vectors
     3.126351708  3.126351708  3.126351708     0.391748909  0.391748909  0.391748909


 FORCES acting on ions
    electron-ion (+dipol)            ewald-force                    non-local-force                 convergence-correction
 -----------------------------------------------------------------------------------------------
   -.186E-12 0.335E-12 -.202E-12   -.547E-14 0.184E-14 0.271E-14   0.106E-21 -.265E-22 0.265E-21   -.469E-13 0.485E-13 -.292E-12
 -----------------------------------------------------------------------------------------------
   -.186E-12 0.335E-12 -.202E-12   -.547E-14 0.184E-14 0.271E-14   0.106E-21 -.265E-22 0.265E-21   -.469E-13 0.485E-13 -.292E-12
 
 
 POSITION                                       TOTAL-FORCE (eV/Angst)
 -----------------------------------------------------------------------------------
      0.00000      0.00000      0.00000         0.000000      0.000000      0.000000
 -----------------------------------------------------------------------------------
    total drift:                                0.000000      0.000000      0.000000


--------------------------------------------------------------------------------------------------------



  FREE ENERGIE OF THE ION-ELECTRON SYSTEM (eV)
  ---------------------------------------------------
  free  energy   TOTEN  =        -2.497524 eV

  energy  without entropy=       -2.497524  energy(sigma->0) =       -2.497524
 


--------------------------------------------------------------------------------------------------------


    POTLOK:  cpu time    0.01: real time    0.01


--------------------------------------------------------------------------------------------------------


 writing wavefunctions
     LOOP+:  cpu time    3.69: real time    3.77
    4ORBIT:  cpu time    0.00: real time    0.00
 BZINTS: Fermi energy:  1.336686; 17.000000 electrons
         Band energy:-410.810869;  BLOECHL correction: -0.081222

 total amount of memory used by VASP on root node    32672. kBytes
========================================================================

   base      :      30000. kBytes
   nonl-proj :       1829. kBytes
   fftplans  :        119. kBytes
   grid      :        270. kBytes
   one-center:         15. kBytes
   wavefun   :        439. kBytes
 
  
  
 General timing and accounting informations for this job:
 ========================================================
  
                  Total CPU time used (sec):        4.148
                            User time (sec):        4.048
                          System time (sec):        0.100
                         Elapsed time (sec):        5.334
  
                   Maximum memory used (kb):       31544.
                   Average memory used (kb):           0.
  
                          Minor page faults:         5860
                          Major page faults:            0
                 Voluntary context switches:          524
