<?xml version="1.0" encoding="ISO-8859-1"?>
<modeling>
 <generator>
  <i name="program" type="string">vasp </i>
  <i name="version" type="string">5.2.12  </i>
  <i name="subversion" type="string">11Nov11 complex                                                      parallel </i>
  <i name="platform" type="string">LinuxIFC </i>
  <i name="date" type="string">2020 04 16 </i>
  <i name="time" type="string">21:24:59 </i>
 </generator>
 <incar>
  <i type="int" name="ISTART">     0</i>
  <i type="string" name="PREC">normal</i>
  <i type="int" name="ICHARG">     2</i>
  <i type="int" name="NELM">    40</i>
  <i type="int" name="NELMIN">     2</i>
  <i name="EDIFF">      0.00010000</i>
  <i name="ENCUT">    300.00000000</i>
  <i type="logical" name="LREAL"> F  </i>
  <i type="int" name="ISMEAR">    -5</i>
  <i type="int" name="NELM">    40</i>
 </incar>
 <kpoints>
  <generation param="Monkhorst-Pack">
   <v type="int" name="divisions">      10       10       10 </v>
   <v name="usershift">      0.00000000       0.00000000       0.00000000 </v>
   <v name="genvec1">      0.10000000       0.00000000       0.00000000 </v>
   <v name="genvec2">      0.00000000       0.10000000       0.00000000 </v>
   <v name="genvec3">      0.00000000       0.00000000       0.10000000 </v>
   <v name="shift">      0.50000000       0.50000000       0.50000000 </v>
  </generation>
  <varray name="kpointlist" >
   <v>       0.05000000       0.05000000       0.05000000 </v>
   <v>       0.15000000       0.05000000       0.05000000 </v>
   <v>       0.25000000       0.05000000       0.05000000 </v>
   <v>       0.35000000       0.05000000       0.05000000 </v>
   <v>       0.45000000       0.05000000       0.05000000 </v>
   <v>      -0.05000000       0.05000000       0.05000000 </v>
   <v>       0.15000000       0.15000000       0.05000000 </v>
   <v>       0.25000000       0.15000000       0.05000000 </v>
   <v>       0.35000000       0.15000000       0.05000000 </v>
   <v>      -0.15000000       0.15000000       0.05000000 </v>
   <v>       0.25000000       0.25000000       0.05000000 </v>
   <v>       0.35000000       0.25000000       0.05000000 </v>
   <v>      -0.25000000       0.25000000       0.05000000 </v>
   <v>      -0.15000000       0.25000000       0.05000000 </v>
   <v>      -0.35000000       0.35000000       0.05000000 </v>
   <v>      -0.25000000       0.35000000       0.05000000 </v>
   <v>      -0.45000000       0.45000000       0.05000000 </v>
   <v>      -0.35000000       0.45000000       0.05000000 </v>
   <v>      -0.25000000       0.45000000       0.05000000 </v>
   <v>      -0.45000000      -0.45000000       0.05000000 </v>
   <v>      -0.35000000      -0.45000000       0.05000000 </v>
   <v>      -0.35000000      -0.35000000       0.05000000 </v>
   <v>       0.15000000       0.15000000       0.15000000 </v>
   <v>       0.25000000       0.15000000       0.15000000 </v>
   <v>       0.35000000       0.15000000       0.15000000 </v>
   <v>      -0.15000000       0.15000000       0.15000000 </v>
   <v>       0.25000000       0.25000000       0.15000000 </v>
   <v>      -0.25000000       0.25000000       0.15000000 </v>
   <v>      -0.35000000       0.35000000       0.15000000 </v>
   <v>      -0.25000000       0.35000000       0.15000000 </v>
   <v>      -0.45000000       0.45000000       0.15000000 </v>
   <v>      -0.35000000       0.45000000       0.15000000 </v>
   <v>      -0.45000000      -0.45000000       0.15000000 </v>
   <v>      -0.35000000      -0.45000000       0.15000000 </v>
   <v>       0.25000000       0.25000000       0.25000000 </v>
   <v>      -0.25000000       0.25000000       0.25000000 </v>
   <v>      -0.35000000       0.35000000       0.25000000 </v>
   <v>      -0.45000000       0.45000000       0.25000000 </v>
   <v>      -0.35000000       0.45000000       0.25000000 </v>
   <v>      -0.45000000      -0.45000000       0.25000000 </v>
   <v>      -0.35000000       0.35000000       0.35000000 </v>
   <v>      -0.45000000       0.45000000       0.35000000 </v>
   <v>      -0.45000000      -0.45000000       0.35000000 </v>
   <v>      -0.45000000       0.45000000       0.45000000 </v>
  </varray>
  <varray name="weights" >
   <v>       0.00800000 </v>
   <v>       0.02400000 </v>
   <v>       0.02400000 </v>
   <v>       0.02400000 </v>
   <v>       0.01200000 </v>
   <v>       0.00600000 </v>
   <v>       0.02400000 </v>
   <v>       0.04800000 </v>
   <v>       0.04800000 </v>
   <v>       0.02400000 </v>
   <v>       0.02400000 </v>
   <v>       0.02400000 </v>
   <v>       0.02400000 </v>
   <v>       0.02400000 </v>
   <v>       0.02400000 </v>
   <v>       0.04800000 </v>
   <v>       0.02400000 </v>
   <v>       0.04800000 </v>
   <v>       0.02400000 </v>
   <v>       0.02400000 </v>
   <v>       0.04800000 </v>
   <v>       0.00800000 </v>
   <v>       0.00800000 </v>
   <v>       0.02400000 </v>
   <v>       0.01200000 </v>
   <v>       0.00600000 </v>
   <v>       0.02400000 </v>
   <v>       0.02400000 </v>
   <v>       0.02400000 </v>
   <v>       0.02400000 </v>
   <v>       0.02400000 </v>
   <v>       0.04800000 </v>
   <v>       0.02400000 </v>
   <v>       0.02400000 </v>
   <v>       0.00200000 </v>
   <v>       0.00600000 </v>
   <v>       0.02400000 </v>
   <v>       0.02400000 </v>
   <v>       0.02400000 </v>
   <v>       0.02400000 </v>
   <v>       0.00600000 </v>
   <v>       0.02400000 </v>
   <v>       0.00800000 </v>
   <v>       0.00600000 </v>
  </varray>
  <varray name="tetrahedronlist"  type="int" >
   <v type="int" >        4        1        2        2        7 </v>
   <v type="int" >        8        2        2        7        7 </v>
   <v type="int" >        4        2        7        7       23 </v>
   <v type="int" >        4        2        3        7        8 </v>
   <v type="int" >        4        2        7        7        8 </v>
   <v type="int" >       12        7        7        8       23 </v>
   <v type="int" >        8        3        7        8        8 </v>
   <v type="int" >        8        7        8        8       24 </v>
   <v type="int" >        8        7        8       23       24 </v>
   <v type="int" >        4        3        4        8        9 </v>
   <v type="int" >        4        3        8        8        9 </v>
   <v type="int" >       12        8        8        9       24 </v>
   <v type="int" >        8        4        8        9        9 </v>
   <v type="int" >        4        8        9        9       25 </v>
   <v type="int" >        4        8        9       24       25 </v>
   <v type="int" >        4        4        5        9        9 </v>
   <v type="int" >        4        4        9        9        9 </v>
   <v type="int" >        8        9        9        9       25 </v>
   <v type="int" >        8        5        9        9        9 </v>
   <v type="int" >        4        9        9        9       24 </v>
   <v type="int" >        4        9        9       24       25 </v>
   <v type="int" >        4        4        5        8        9 </v>
   <v type="int" >        4        5        8        9        9 </v>
   <v type="int" >        8        8        9        9       24 </v>
   <v type="int" >        8        4        8        8        9 </v>
   <v type="int" >        4        8        8        9       23 </v>
   <v type="int" >        4        8        9       23       24 </v>
   <v type="int" >        4        3        4        7        8 </v>
   <v type="int" >        4        4        7        8        8 </v>
   <v type="int" >       16        7        8        8       23 </v>
   <v type="int" >        8        3        7        7        8 </v>
   <v type="int" >        4        7        7        7        8 </v>
   <v type="int" >        4        2        2        3        7 </v>
   <v type="int" >        8        2        3        7        7 </v>
   <v type="int" >        4        2        7        7        7 </v>
   <v type="int" >        4        2        2        2        7 </v>
   <v type="int" >        8        2        2        7       14 </v>
   <v type="int" >        4        2        7        7       14 </v>
   <v type="int" >       16        1        2        2       10 </v>
   <v type="int" >        4        2        2        2       10 </v>
   <v type="int" >       12        2        2       10       14 </v>
   <v type="int" >       16        1        2       10       10 </v>
   <v type="int" >        4        2       10       10       26 </v>
   <v type="int" >        4        2       10       14       26 </v>
   <v type="int" >       20        1        6       10       10 </v>
   <v type="int" >        4        1       10       10       10 </v>
   <v type="int" >        4       10       10       10       26 </v>
   <v type="int" >        8        6       10       10       10 </v>
   <v type="int" >        4       10       10       10       14 </v>
   <v type="int" >        4       10       10       14       26 </v>
   <v type="int" >        8        1        2        6       10 </v>
   <v type="int" >        8        2        6       10       10 </v>
   <v type="int" >        8        2       10       10       14 </v>
   <v type="int" >        4        2        2        7       10 </v>
   <v type="int" >        4        2        7       10       14 </v>
   <v type="int" >        4        7        8       11       23 </v>
   <v type="int" >       12        8       11       23       24 </v>
   <v type="int" >        4       11       23       24       27 </v>
   <v type="int" >        4        8        9       12       24 </v>
   <v type="int" >        4        8       11       12       24 </v>
   <v type="int" >        8       11       12       24       27 </v>
   <v type="int" >       16        9       12       24       25 </v>
   <v type="int" >       16       12       24       25       27 </v>
   <v type="int" >        8       12       24       27       27 </v>
   <v type="int" >        8        9        9       11       25 </v>
   <v type="int" >       12        9       11       12       25 </v>
   <v type="int" >       16       11       12       25       27 </v>
   <v type="int" >       12        9       11       24       25 </v>
   <v type="int" >        4       11       24       24       25 </v>
   <v type="int" >       16       11       24       25       27 </v>
   <v type="int" >       16        8        9       11       24 </v>
   <v type="int" >        8        8       11       24       24 </v>
   <v type="int" >       16        8        8       23       24 </v>
   <v type="int" >        4        8        8       24       24 </v>
   <v type="int" >       12        3        7        8       23 </v>
   <v type="int" >        8        3        8        8       23 </v>
   <v type="int" >        8        3        7        7       23 </v>
   <v type="int" >        4        3        7       16       23 </v>
   <v type="int" >        4        3        8       16       23 </v>
   <v type="int" >        4        2        7        7       13 </v>
   <v type="int" >        4        3        7        7       13 </v>
   <v type="int" >        8        3        7       13       16 </v>
   <v type="int" >       12        2        7       13       14 </v>
   <v type="int" >        4        7       13       14       28 </v>
   <v type="int" >        4        7       13       16       28 </v>
   <v type="int" >        4        2       10       14       14 </v>
   <v type="int" >        4        2       13       14       14 </v>
   <v type="int" >        4       13       14       14       28 </v>
   <v type="int" >        8       10       14       14       26 </v>
   <v type="int" >        8       14       14       26       28 </v>
   <v type="int" >        4       14       14       28       28 </v>
   <v type="int" >        4       10       10       13       26 </v>
   <v type="int" >       12       10       13       14       26 </v>
   <v type="int" >       12       13       14       26       28 </v>
   <v type="int" >        4       13       14       16       26 </v>
   <v type="int" >        4       13       16       26       28 </v>
   <v type="int" >        4        2        3       10       14 </v>
   <v type="int" >        4        3       10       13       14 </v>
   <v type="int" >        8        3       13       14       16 </v>
   <v type="int" >       16        2        3        7       14 </v>
   <v type="int" >        4        3        7        8       14 </v>
   <v type="int" >        4        3        8       14       16 </v>
   <v type="int" >        8       11       12       12       27 </v>
   <v type="int" >        8       12       12       27       27 </v>
   <v type="int" >       12       12       25       27       27 </v>
   <v type="int" >       12        9       11       12       27 </v>
   <v type="int" >        4        9       12       12       27 </v>
   <v type="int" >        8        9       12       25       27 </v>
   <v type="int" >       12        9       11       24       27 </v>
   <v type="int" >        4        9        9       24       27 </v>
   <v type="int" >        8        9        9       25       27 </v>
   <v type="int" >        4        4        8       11       24 </v>
   <v type="int" >        4        4        9       11       24 </v>
   <v type="int" >        4        4        9        9       24 </v>
   <v type="int" >        4        4        8        8       24 </v>
   <v type="int" >        4        4        8       18       24 </v>
   <v type="int" >        4        4        9       18       24 </v>
   <v type="int" >        4        3        8        8       15 </v>
   <v type="int" >        4        4        8        8       15 </v>
   <v type="int" >        8        4        8       15       18 </v>
   <v type="int" >        8        3        8       15       16 </v>
   <v type="int" >        4        8       15       16       29 </v>
   <v type="int" >        4        8       15       18       29 </v>
   <v type="int" >        4        3       13       16       16 </v>
   <v type="int" >        4        3       15       16       16 </v>
   <v type="int" >        4       15       16       16       29 </v>
   <v type="int" >        8       13       16       16       28 </v>
   <v type="int" >       12       16       16       28       30 </v>
   <v type="int" >        4       16       16       29       30 </v>
   <v type="int" >        8       13       14       16       28 </v>
   <v type="int" >        8       14       16       28       28 </v>
   <v type="int" >        4       16       28       28       29 </v>
   <v type="int" >        8       16       28       29       30 </v>
   <v type="int" >        4       13       14       15       28 </v>
   <v type="int" >        4       14       15       16       28 </v>
   <v type="int" >        8       15       16       28       29 </v>
   <v type="int" >        8       13       15       16       28 </v>
   <v type="int" >        4       15       16       18       28 </v>
   <v type="int" >        4       15       18       28       29 </v>
   <v type="int" >        4        3        4       13       16 </v>
   <v type="int" >        4        4       13       15       16 </v>
   <v type="int" >        8        4       15       16       18 </v>
   <v type="int" >       12        3        4        8       16 </v>
   <v type="int" >        4        4        8        9       16 </v>
   <v type="int" >        4        4        9       16       18 </v>
   <v type="int" >        4        5        9       12       25 </v>
   <v type="int" >        8        5        9        9       25 </v>
   <v type="int" >        4        5        9       20       25 </v>
   <v type="int" >        4        4        9        9       17 </v>
   <v type="int" >        8        5        9        9       17 </v>
   <v type="int" >        8        5        9       17       20 </v>
   <v type="int" >        8        4        9       17       18 </v>
   <v type="int" >        4        9       17       18       31 </v>
   <v type="int" >        4        9       17       20       31 </v>
   <v type="int" >        4        4       15       18       18 </v>
   <v type="int" >        4        4       17       18       18 </v>
   <v type="int" >        4       17       18       18       31 </v>
   <v type="int" >        4       15       18       18       29 </v>
   <v type="int" >        4       18       18       29       32 </v>
   <v type="int" >        4       18       18       31       32 </v>
   <v type="int" >        4       15       16       19       29 </v>
   <v type="int" >        4       15       18       19       29 </v>
   <v type="int" >        8       18       19       29       32 </v>
   <v type="int" >       12       16       19       29       30 </v>
   <v type="int" >       12       19       29       30       32 </v>
   <v type="int" >        4       19       29       32       32 </v>
   <v type="int" >        4       16       16       18       30 </v>
   <v type="int" >       12       16       18       19       30 </v>
   <v type="int" >       12       18       19       30       32 </v>
   <v type="int" >        8       16       18       29       30 </v>
   <v type="int" >        4       18       29       30       31 </v>
   <v type="int" >        4       18       30       31       32 </v>
   <v type="int" >        4       15       16       17       29 </v>
   <v type="int" >        4       16       17       18       29 </v>
   <v type="int" >        8       17       18       29       31 </v>
   <v type="int" >        8       15       17       18       29 </v>
   <v type="int" >        4       17       18       20       29 </v>
   <v type="int" >        4       17       20       29       31 </v>
   <v type="int" >        4        4        5       15       18 </v>
   <v type="int" >        4        5       15       17       18 </v>
   <v type="int" >       12        5       17       18       20 </v>
   <v type="int" >       12        4        5        9       18 </v>
   <v type="int" >        8        5        9        9       18 </v>
   <v type="int" >       12        5        9       18       20 </v>
   <v type="int" >        4        5       17       20       20 </v>
   <v type="int" >        4       17       20       20       31 </v>
   <v type="int" >        4       20       20       31       33 </v>
   <v type="int" >        4       17       18       21       31 </v>
   <v type="int" >        4       17       20       21       31 </v>
   <v type="int" >        8       20       21       31       33 </v>
   <v type="int" >        8       18       21       31       32 </v>
   <v type="int" >        4       21       31       32       34 </v>
   <v type="int" >        4       21       31       33       34 </v>
   <v type="int" >        8       18       19       21       32 </v>
   <v type="int" >        4       18       21       21       32 </v>
   <v type="int" >       12       21       21       32       34 </v>
   <v type="int" >        8       19       21       32       32 </v>
   <v type="int" >        4       21       32       32       33 </v>
   <v type="int" >       16       21       32       33       34 </v>
   <v type="int" >        4       18       19       20       32 </v>
   <v type="int" >        4       19       20       21       32 </v>
   <v type="int" >       12       20       21       32       33 </v>
   <v type="int" >        8       18       20       31       32 </v>
   <v type="int" >        4       20       31       31       32 </v>
   <v type="int" >       12       20       31       32       33 </v>
   <v type="int" >        4       17       17       18       31 </v>
   <v type="int" >        8       17       18       20       31 </v>
   <v type="int" >        8       17       20       31       31 </v>
   <v type="int" >        8       17       17       20       31 </v>
   <v type="int" >        4       17       18       31       31 </v>
   <v type="int" >       16        4        5       17       20 </v>
   <v type="int" >        8        4       17       17       20 </v>
   <v type="int" >        8        4       17       18       20 </v>
   <v type="int" >       16        4        5        9       20 </v>
   <v type="int" >        4        4        8        9       20 </v>
   <v type="int" >        4        4        8       18       20 </v>
   <v type="int" >        4       20       21       22       33 </v>
   <v type="int" >       12       21       22       33       34 </v>
   <v type="int" >        8       22       33       34       34 </v>
   <v type="int" >        4       21       21       21       34 </v>
   <v type="int" >       16       21       21       22       34 </v>
   <v type="int" >       12       21       22       34       34 </v>
   <v type="int" >        8       21       21       33       34 </v>
   <v type="int" >        4       21       32       34       34 </v>
   <v type="int" >       12       18       20       21       33 </v>
   <v type="int" >        4       18       21       21       33 </v>
   <v type="int" >        8       18       21       32       33 </v>
   <v type="int" >       12       18       20       31       33 </v>
   <v type="int" >        4       18       29       31       33 </v>
   <v type="int" >        4       18       29       32       33 </v>
   <v type="int" >        4       15       17       20       31 </v>
   <v type="int" >        4       15       18       20       31 </v>
   <v type="int" >        8       15       18       29       31 </v>
   <v type="int" >        8       15       17       18       31 </v>
   <v type="int" >        4       15       16       18       31 </v>
   <v type="int" >        4       15       16       29       31 </v>
   <v type="int" >        4        3        4       17       18 </v>
   <v type="int" >        4        3       15       17       18 </v>
   <v type="int" >        8        3       15       16       18 </v>
   <v type="int" >       12        3        4        8       18 </v>
   <v type="int" >        4        3        7        8       18 </v>
   <v type="int" >        4        3        7       16       18 </v>
   <v type="int" >        4       19       21       22       34 </v>
   <v type="int" >        8       19       21       32       34 </v>
   <v type="int" >        4       19       30       32       34 </v>
   <v type="int" >        4       16       18       21       32 </v>
   <v type="int" >        4       16       19       21       32 </v>
   <v type="int" >        8       16       19       30       32 </v>
   <v type="int" >        8       16       18       29       32 </v>
   <v type="int" >        4       16       28       29       32 </v>
   <v type="int" >        4       16       28       30       32 </v>
   <v type="int" >        4       13       15       18       29 </v>
   <v type="int" >        4       13       16       18       29 </v>
   <v type="int" >        8       13       16       28       29 </v>
   <v type="int" >        8       13       15       16       29 </v>
   <v type="int" >        4       13       14       16       29 </v>
   <v type="int" >        4       13       14       28       29 </v>
   <v type="int" >        4        2        3       15       16 </v>
   <v type="int" >        4        2       13       15       16 </v>
   <v type="int" >        8        2       13       14       16 </v>
   <v type="int" >       12        2        3        7       16 </v>
   <v type="int" >        4        2        2        7       16 </v>
   <v type="int" >        4        2        2       14       16 </v>
   <v type="int" >        4       14       16       19       30 </v>
   <v type="int" >        8       14       16       28       30 </v>
   <v type="int" >        4       14       26       28       30 </v>
   <v type="int" >        4       10       13       16       28 </v>
   <v type="int" >        4       10       14       16       28 </v>
   <v type="int" >        8       10       14       26       28 </v>
   <v type="int" >        8       10       13       14       28 </v>
   <v type="int" >        4       10       10       14       28 </v>
   <v type="int" >        4       10       10       26       28 </v>
   <v type="int" >        4        1        2       13       14 </v>
   <v type="int" >        4        1       10       13       14 </v>
   <v type="int" >        8        1       10       10       14 </v>
   <v type="int" >        8        1        2        2       14 </v>
   <v type="int" >       12        1        2       10       14 </v>
   <v type="int" >        4        6       10       14       26 </v>
   <v type="int" >        4        6       10       10       26 </v>
   <v type="int" >        4        1        6       10       26 </v>
   <v type="int" >        4        6        6       10       10 </v>
   <v type="int" >       12        1        6        6       10 </v>
   <v type="int" >        6        1        1        6        6 </v>
   <v type="int" >        8        1        1        6       10 </v>
   <v type="int" >        4        1        1        2       10 </v>
   <v type="int" >        4        2        3        7       23 </v>
   <v type="int" >        4        3        8       23       24 </v>
   <v type="int" >       12        8       23       24       24 </v>
   <v type="int" >        8        8        8       11       24 </v>
   <v type="int" >        4        8       11       24       27 </v>
   <v type="int" >        4        8       24       24       27 </v>
   <v type="int" >        4        8        9       11       25 </v>
   <v type="int" >        4        8       11       24       25 </v>
   <v type="int" >        8       11       25       27       27 </v>
   <v type="int" >        8        9        9       12       24 </v>
   <v type="int" >        8        9       11       12       24 </v>
   <v type="int" >        4       11       12       24       24 </v>
   <v type="int" >        4       12       24       24       27 </v>
   <v type="int" >        4        8        9       11       23 </v>
   <v type="int" >        4        9       11       23       24 </v>
   <v type="int" >        8       11       23       24       24 </v>
   <v type="int" >        8        8        8       11       23 </v>
   <v type="int" >        4        7        7        8        8 </v>
   <v type="int" >       16        3        7        8       16 </v>
   <v type="int" >       12        7        8        8       16 </v>
   <v type="int" >        4        3        7        7       14 </v>
   <v type="int" >       12        3        7       14       16 </v>
   <v type="int" >       12        2        3       13       14 </v>
   <v type="int" >        4        3       13       14       28 </v>
   <v type="int" >        4        3       14       16       28 </v>
   <v type="int" >        4        2       10       13       26 </v>
   <v type="int" >        4        2       13       14       26 </v>
   <v type="int" >        4       13       26       28       28 </v>
   <v type="int" >        4       10       10       14       14 </v>
   <v type="int" >        4       10       13       14       14 </v>
   <v type="int" >        4       13       14       14       16 </v>
   <v type="int" >        4       14       14       16       28 </v>
   <v type="int" >        4        2        7       10       13 </v>
   <v type="int" >        4        7       10       13       14 </v>
   <v type="int" >       12        7       13       14       16 </v>
   <v type="int" >        8        2        3        7       13 </v>
   <v type="int" >        4        3        7        8       13 </v>
   <v type="int" >        4        7        8       13       16 </v>
   <v type="int" >        4       23       24       24       27 </v>
   <v type="int" >        8       24       24       27       27 </v>
   <v type="int" >        4       24       27       27       35 </v>
   <v type="int" >       12       24       25       27       27 </v>
   <v type="int" >        8       24       27       27       27 </v>
   <v type="int" >       16       27       27       27       35 </v>
   <v type="int" >        8       25       27       27       27 </v>
   <v type="int" >        8       27       27       27       27 </v>
   <v type="int" >        4       24       24       25       27 </v>
   <v type="int" >        4       24       24       24       27 </v>
   <v type="int" >        8       11       24       24       27 </v>
   <v type="int" >        4       11       24       27       27 </v>
   <v type="int" >        4        8       24       24       24 </v>
   <v type="int" >        4        8        8       19       24 </v>
   <v type="int" >        4        8       11       19       24 </v>
   <v type="int" >        4        7        8       16       23 </v>
   <v type="int" >        4        8        8       16       23 </v>
   <v type="int" >        8        8        8       16       19 </v>
   <v type="int" >        8        7        8       16       16 </v>
   <v type="int" >        4        8       16       16       30 </v>
   <v type="int" >        4        8       16       19       30 </v>
   <v type="int" >        4        7       14       16       28 </v>
   <v type="int" >        4        7       16       16       28 </v>
   <v type="int" >        4       16       28       28       36 </v>
   <v type="int" >        4       16       28       30       36 </v>
   <v type="int" >        4       14       26       28       28 </v>
   <v type="int" >        4       14       28       28       28 </v>
   <v type="int" >        4       28       28       28       36 </v>
   <v type="int" >        4       26       28       28       28 </v>
   <v type="int" >        4       28       28       28       30 </v>
   <v type="int" >        4       28       28       30       36 </v>
   <v type="int" >        4       14       16       26       28 </v>
   <v type="int" >        4       16       26       28       28 </v>
   <v type="int" >        8       16       28       28       30 </v>
   <v type="int" >       12       14       16       16       28 </v>
   <v type="int" >        4       16       16       19       28 </v>
   <v type="int" >        4       16       19       28       30 </v>
   <v type="int" >        4        7        8       14       16 </v>
   <v type="int" >        4        8       14       16       16 </v>
   <v type="int" >        8        8       16       16       19 </v>
   <v type="int" >        4        8        8       11       16 </v>
   <v type="int" >        4        8       11       16       19 </v>
   <v type="int" >       16       25       27       27       35 </v>
   <v type="int" >        4       12       25       27       35 </v>
   <v type="int" >        4        9       24       27       27 </v>
   <v type="int" >        8        9       25       27       27 </v>
   <v type="int" >        4        9       11       21       27 </v>
   <v type="int" >        4        9       12       21       27 </v>
   <v type="int" >        4        8       11       18       24 </v>
   <v type="int" >        4        9       11       18       24 </v>
   <v type="int" >        8        9       11       18       21 </v>
   <v type="int" >       12        8       11       18       19 </v>
   <v type="int" >        4       11       18       19       32 </v>
   <v type="int" >        4       11       18       21       32 </v>
   <v type="int" >        4        8       16       19       29 </v>
   <v type="int" >        4        8       18       19       29 </v>
   <v type="int" >        4       19       29       30       37 </v>
   <v type="int" >        4       19       29       32       37 </v>
   <v type="int" >        4       16       28       30       30 </v>
   <v type="int" >        4       16       29       30       30 </v>
   <v type="int" >        4       29       30       30       37 </v>
   <v type="int" >        8       28       30       30       36 </v>
   <v type="int" >        8       30       30       36       37 </v>
   <v type="int" >        4       30       30       37       37 </v>
   <v type="int" >        4       28       28       29       36 </v>
   <v type="int" >       12       28       29       30       36 </v>
   <v type="int" >       12       29       30       36       37 </v>
   <v type="int" >        4       29       30       32       36 </v>
   <v type="int" >        4       29       32       36       37 </v>
   <v type="int" >        4       16       18       28       30 </v>
   <v type="int" >        4       18       28       29       30 </v>
   <v type="int" >        8       18       29       30       32 </v>
   <v type="int" >        4       18       19       21       30 </v>
   <v type="int" >        4       18       21       30       32 </v>
   <v type="int" >        4        8        9       16       19 </v>
   <v type="int" >        4        9       16       18       19 </v>
   <v type="int" >        8        9       18       19       21 </v>
   <v type="int" >       12        8        9       11       19 </v>
   <v type="int" >        4        9       11       12       19 </v>
   <v type="int" >        4        9       12       19       21 </v>
   <v type="int" >        4        9       12       20       25 </v>
   <v type="int" >        8        9       12       20       21 </v>
   <v type="int" >        4       12       20       21       33 </v>
   <v type="int" >        4        9       18       21       31 </v>
   <v type="int" >        4        9       20       21       31 </v>
   <v type="int" >        4       21       31       32       38 </v>
   <v type="int" >        4       21       31       33       38 </v>
   <v type="int" >        4       18       29       32       32 </v>
   <v type="int" >        4       18       31       32       32 </v>
   <v type="int" >        4       31       32       32       38 </v>
   <v type="int" >        8       29       32       32       37 </v>
   <v type="int" >       12       32       32       37       39 </v>
   <v type="int" >        4       32       32       38       39 </v>
   <v type="int" >        8       29       30       32       37 </v>
   <v type="int" >        8       30       32       37       37 </v>
   <v type="int" >        4       32       37       37       38 </v>
   <v type="int" >        8       32       37       38       39 </v>
   <v type="int" >        4       29       30       31       37 </v>
   <v type="int" >        4       30       31       32       37 </v>
   <v type="int" >        8       31       32       37       38 </v>
   <v type="int" >        8       29       31       32       37 </v>
   <v type="int" >        4       31       32       33       37 </v>
   <v type="int" >        4       31       33       37       38 </v>
   <v type="int" >        4       18       20       29       32 </v>
   <v type="int" >        4       20       29       31       32 </v>
   <v type="int" >        8       18       20       21       32 </v>
   <v type="int" >        4       20       21       21       32 </v>
   <v type="int" >        4        9        9       18       21 </v>
   <v type="int" >        8        9       18       20       21 </v>
   <v type="int" >        8        9       20       21       21 </v>
   <v type="int" >        8        9        9       12       21 </v>
   <v type="int" >       16        9       11       12       21 </v>
   <v type="int" >        4        9       11       21       21 </v>
   <v type="int" >        4       20       31       33       33 </v>
   <v type="int" >        4       31       33       33       38 </v>
   <v type="int" >        4       33       33       38       40 </v>
   <v type="int" >        4       31       32       34       38 </v>
   <v type="int" >        4       31       33       34       38 </v>
   <v type="int" >        8       33       34       38       40 </v>
   <v type="int" >       12       32       34       38       39 </v>
   <v type="int" >       12       34       38       39       40 </v>
   <v type="int" >        4       34       38       40       40 </v>
   <v type="int" >        4       32       32       33       39 </v>
   <v type="int" >       12       32       33       34       39 </v>
   <v type="int" >       16       33       34       39       40 </v>
   <v type="int" >        8       32       33       38       39 </v>
   <v type="int" >        4       33       38       38       39 </v>
   <v type="int" >       12       33       38       39       40 </v>
   <v type="int" >        4       31       31       32       38 </v>
   <v type="int" >        8       31       32       33       38 </v>
   <v type="int" >        8       31       33       38       38 </v>
   <v type="int" >        8       31       31       33       38 </v>
   <v type="int" >        4       31       32       38       38 </v>
   <v type="int" >        4       18       31       31       33 </v>
   <v type="int" >        8       18       31       32       33 </v>
   <v type="int" >        4       18       19       21       33 </v>
   <v type="int" >        4       18       19       32       33 </v>
   <v type="int" >        4        8        9       20       21 </v>
   <v type="int" >        4        8       18       20       21 </v>
   <v type="int" >        8        8       18       19       21 </v>
   <v type="int" >        8        8        9       11       21 </v>
   <v type="int" >        4        8        8       11       21 </v>
   <v type="int" >        4        8        8       19       21 </v>
   <v type="int" >        8       33       34       34       40 </v>
   <v type="int" >        8       34       34       40       40 </v>
   <v type="int" >        8       34       39       40       40 </v>
   <v type="int" >       12       32       33       34       40 </v>
   <v type="int" >        4       32       34       34       40 </v>
   <v type="int" >        8       32       34       39       40 </v>
   <v type="int" >       12       32       33       38       40 </v>
   <v type="int" >        4       32       37       38       40 </v>
   <v type="int" >        4       32       37       39       40 </v>
   <v type="int" >        4       29       31       33       38 </v>
   <v type="int" >        4       29       32       33       38 </v>
   <v type="int" >        8       29       32       37       38 </v>
   <v type="int" >        8       29       31       32       38 </v>
   <v type="int" >        4       29       30       32       38 </v>
   <v type="int" >        4       29       30       37       38 </v>
   <v type="int" >        4       16       18       31       32 </v>
   <v type="int" >        4       16       29       31       32 </v>
   <v type="int" >        8       16       29       30       32 </v>
   <v type="int" >        8       16       18       19       32 </v>
   <v type="int" >        4       16       16       19       32 </v>
   <v type="int" >        4       16       16       30       32 </v>
   <v type="int" >        4        7        8       18       19 </v>
   <v type="int" >        4        7       16       18       19 </v>
   <v type="int" >        4        7       16       16       19 </v>
   <v type="int" >        4        7        8        8       19 </v>
   <v type="int" >        4        3        7        8       19 </v>
   <v type="int" >        4        3        7       16       19 </v>
   <v type="int" >        4       30       32       34       39 </v>
   <v type="int" >        8       30       32       37       39 </v>
   <v type="int" >        4       30       36       37       39 </v>
   <v type="int" >        4       28       29       32       37 </v>
   <v type="int" >        4       28       30       32       37 </v>
   <v type="int" >        8       28       30       36       37 </v>
   <v type="int" >        8       28       29       30       37 </v>
   <v type="int" >        4       28       28       30       37 </v>
   <v type="int" >        4       28       28       36       37 </v>
   <v type="int" >        4       14       16       29       30 </v>
   <v type="int" >        4       14       28       29       30 </v>
   <v type="int" >        4       14       28       28       30 </v>
   <v type="int" >        4       14       16       16       30 </v>
   <v type="int" >        4       13       14       16       30 </v>
   <v type="int" >        4       13       14       28       30 </v>
   <v type="int" >        4        2        7       16       16 </v>
   <v type="int" >        4        2       14       16       16 </v>
   <v type="int" >       12        2        3       13       16 </v>
   <v type="int" >        4        2       13       13       16 </v>
   <v type="int" >        4       26       28       30       36 </v>
   <v type="int" >        4       26       28       28       36 </v>
   <v type="int" >        4       14       26       28       36 </v>
   <v type="int" >        4       10       14       28       28 </v>
   <v type="int" >        4       10       26       28       28 </v>
   <v type="int" >        4        2       10       13       28 </v>
   <v type="int" >        4        2       10       14       28 </v>
   <v type="int" >       16        2       10       13       14 </v>
   <v type="int" >        4       10       10       13       14 </v>
   <v type="int" >       12        2       10       10       13 </v>
   <v type="int" >        8        2       10       13       13 </v>
   <v type="int" >        4       10       13       13       14 </v>
   <v type="int" >        4        1       10       14       26 </v>
   <v type="int" >        4        2       10       10       10 </v>
   <v type="int" >        8        2        2       10       13 </v>
   <v type="int" >        4        2        2        3       13 </v>
   <v type="int" >        4        3        4        8       24 </v>
   <v type="int" >        8        4        8        9       24 </v>
   <v type="int" >        4        4        9       24       25 </v>
   <v type="int" >        4        8        9       11       27 </v>
   <v type="int" >        4        8        9       24       27 </v>
   <v type="int" >        8        9       24       25       27 </v>
   <v type="int" >        4        9       12       27       27 </v>
   <v type="int" >        4       11       12       27       27 </v>
   <v type="int" >        8       12       27       27       27 </v>
   <v type="int" >        4       12       12       12       27 </v>
   <v type="int" >        4       12       12       25       27 </v>
   <v type="int" >        4       11       12       12       24 </v>
   <v type="int" >        4       12       12       24       27 </v>
   <v type="int" >        4        8        8        9       11 </v>
   <v type="int" >        8        4        8        9       18 </v>
   <v type="int" >        4        8        9        9       18 </v>
   <v type="int" >        4        4        8        8       16 </v>
   <v type="int" >        8        4        8       16       18 </v>
   <v type="int" >       12        3        4       15       16 </v>
   <v type="int" >        4        4       15       16       29 </v>
   <v type="int" >        4        4       16       18       29 </v>
   <v type="int" >        4        3       13       15       28 </v>
   <v type="int" >        4        3       15       16       28 </v>
   <v type="int" >        4       15       16       28       30 </v>
   <v type="int" >        4       15       28       29       30 </v>
   <v type="int" >        4       13       16       28       28 </v>
   <v type="int" >        8       16       16       28       29 </v>
   <v type="int" >        4       13       14       16       16 </v>
   <v type="int" >        4       13       15       16       16 </v>
   <v type="int" >        4       15       16       16       18 </v>
   <v type="int" >        4       16       16       18       29 </v>
   <v type="int" >        4        3        8       13       15 </v>
   <v type="int" >        4        8       13       15       16 </v>
   <v type="int" >        8        8       15       16       18 </v>
   <v type="int" >        8        3        4        8       15 </v>
   <v type="int" >        4        4        8        9       15 </v>
   <v type="int" >        4        8        9       15       18 </v>
   <v type="int" >        4       24       25       27       35 </v>
   <v type="int" >        4        9       11       21       25 </v>
   <v type="int" >        4       11       12       21       25 </v>
   <v type="int" >        4        8        9       19       24 </v>
   <v type="int" >        4        9       11       19       24 </v>
   <v type="int" >       12        9       11       19       21 </v>
   <v type="int" >        8        8        9       18       19 </v>
   <v type="int" >        4        9       18       19       32 </v>
   <v type="int" >        4        9       19       21       32 </v>
   <v type="int" >        4        8       16       18       30 </v>
   <v type="int" >        4        8       18       19       30 </v>
   <v type="int" >        4       18       29       30       37 </v>
   <v type="int" >        4       18       30       32       37 </v>
   <v type="int" >        4       16       28       29       36 </v>
   <v type="int" >        4       16       29       30       36 </v>
   <v type="int" >        4       29       36       37       37 </v>
   <v type="int" >        4       28       28       30       30 </v>
   <v type="int" >        4       28       29       30       30 </v>
   <v type="int" >        4       29       30       30       32 </v>
   <v type="int" >        4       30       30       32       37 </v>
   <v type="int" >        4       16       19       28       29 </v>
   <v type="int" >        4       19       28       29       30 </v>
   <v type="int" >        8       16       18       19       29 </v>
   <v type="int" >        4       18       19       21       29 </v>
   <v type="int" >        4       19       21       29       32 </v>
   <v type="int" >        4        8       11       16       18 </v>
   <v type="int" >        4       11       16       18       19 </v>
   <v type="int" >       12       11       18       19       21 </v>
   <v type="int" >        8        8        9       11       18 </v>
   <v type="int" >        4        9       11       12       18 </v>
   <v type="int" >        4       11       12       18       21 </v>
   <v type="int" >        4       12       27       27       35 </v>
   <v type="int" >        4       12       12       22       27 </v>
   <v type="int" >        4       11       12       21       27 </v>
   <v type="int" >        4       12       12       21       27 </v>
   <v type="int" >       12       12       12       21       22 </v>
   <v type="int" >        8       11       12       21       21 </v>
   <v type="int" >        8       12       21       21       34 </v>
   <v type="int" >        8       12       21       22       34 </v>
   <v type="int" >        4       11       19       21       32 </v>
   <v type="int" >        4       11       21       21       32 </v>
   <v type="int" >        4       21       32       32       39 </v>
   <v type="int" >        4       21       32       34       39 </v>
   <v type="int" >        4       19       30       32       37 </v>
   <v type="int" >        4       19       32       32       37 </v>
   <v type="int" >        4       32       37       37       41 </v>
   <v type="int" >        4       32       37       39       41 </v>
   <v type="int" >        4       30       36       37       37 </v>
   <v type="int" >        4       30       37       37       37 </v>
   <v type="int" >        4       37       37       37       41 </v>
   <v type="int" >        4       36       37       37       37 </v>
   <v type="int" >        4       37       37       37       39 </v>
   <v type="int" >        4       37       37       39       41 </v>
   <v type="int" >        4       30       32       36       37 </v>
   <v type="int" >        4       32       36       37       37 </v>
   <v type="int" >        8       32       37       37       39 </v>
   <v type="int" >       12       30       32       32       37 </v>
   <v type="int" >        4       32       32       34       37 </v>
   <v type="int" >        4       32       34       37       39 </v>
   <v type="int" >        4       19       21       30       32 </v>
   <v type="int" >        4       21       30       32       32 </v>
   <v type="int" >        8       21       32       32       34 </v>
   <v type="int" >        8       19       21       21       32 </v>
   <v type="int" >        4       21       21       22       32 </v>
   <v type="int" >        4       21       22       32       34 </v>
   <v type="int" >        4       11       12       19       21 </v>
   <v type="int" >        4       12       19       21       21 </v>
   <v type="int" >       16       12       21       21       22 </v>
   <v type="int" >        8       11       12       12       21 </v>
   <v type="int" >        4       12       12       12       21 </v>
   <v type="int" >        4       12       21       22       33 </v>
   <v type="int" >        4       22       33       34       40 </v>
   <v type="int" >        4       21       32       34       38 </v>
   <v type="int" >        4       21       33       34       38 </v>
   <v type="int" >        4       34       38       39       42 </v>
   <v type="int" >        4       34       38       40       42 </v>
   <v type="int" >        4       32       37       39       39 </v>
   <v type="int" >        4       32       38       39       39 </v>
   <v type="int" >        4       38       39       39       42 </v>
   <v type="int" >        8       37       39       39       41 </v>
   <v type="int" >        8       39       39       41       42 </v>
   <v type="int" >        4       39       39       42       42 </v>
   <v type="int" >        4       37       37       38       41 </v>
   <v type="int" >       12       37       38       39       41 </v>
   <v type="int" >       12       38       39       41       42 </v>
   <v type="int" >        4       38       39       40       41 </v>
   <v type="int" >        4       38       40       41       42 </v>
   <v type="int" >        4       32       33       37       39 </v>
   <v type="int" >        4       33       37       38       39 </v>
   <v type="int" >        4       33       34       34       39 </v>
   <v type="int" >        8       21       33       34       34 </v>
   <v type="int" >        4       21       21       34       34 </v>
   <v type="int" >       12       11       12       21       22 </v>
   <v type="int" >        8       11       21       21       22 </v>
   <v type="int" >        8       11       12       12       22 </v>
   <v type="int" >        4        9       11       12       22 </v>
   <v type="int" >        4        9       11       21       22 </v>
   <v type="int" >        4       33       38       40       40 </v>
   <v type="int" >        8       38       40       40       42 </v>
   <v type="int" >       16       40       40       42       43 </v>
   <v type="int" >       16       38       39       40       42 </v>
   <v type="int" >        8       39       40       42       42 </v>
   <v type="int" >        4       40       42       42       42 </v>
   <v type="int" >       16       40       42       42       43 </v>
   <v type="int" >        4       38       38       39       42 </v>
   <v type="int" >       12       38       40       42       42 </v>
   <v type="int" >        8       38       38       40       42 </v>
   <v type="int" >        4       38       39       42       42 </v>
   <v type="int" >        4       32       38       38       40 </v>
   <v type="int" >        8       32       38       39       40 </v>
   <v type="int" >        4       32       32       34       40 </v>
   <v type="int" >        4       32       32       39       40 </v>
   <v type="int" >        4       19       21       33       34 </v>
   <v type="int" >        4       19       32       33       34 </v>
   <v type="int" >        4       19       32       32       34 </v>
   <v type="int" >        4       19       21       21       34 </v>
   <v type="int" >        4       18       19       21       34 </v>
   <v type="int" >        4       18       19       32       34 </v>
   <v type="int" >        4        8       11       21       21 </v>
   <v type="int" >        4        8       19       21       21 </v>
   <v type="int" >        4        4        8        9       21 </v>
   <v type="int" >        4        4        8       18       21 </v>
   <v type="int" >        8       39       40       40       43 </v>
   <v type="int" >       12       39       40       42       43 </v>
   <v type="int" >        4       39       41       42       43 </v>
   <v type="int" >        4       37       38       40       42 </v>
   <v type="int" >        4       37       39       40       42 </v>
   <v type="int" >        8       37       39       41       42 </v>
   <v type="int" >        8       37       38       39       42 </v>
   <v type="int" >        4       37       37       39       42 </v>
   <v type="int" >        4       37       37       41       42 </v>
   <v type="int" >        4       30       32       38       39 </v>
   <v type="int" >        4       30       37       38       39 </v>
   <v type="int" >        4       30       37       37       39 </v>
   <v type="int" >        4       30       32       32       39 </v>
   <v type="int" >        4       29       30       32       39 </v>
   <v type="int" >        4       29       30       37       39 </v>
   <v type="int" >        4       16       19       32       32 </v>
   <v type="int" >        4       16       30       32       32 </v>
   <v type="int" >        4       15       16       18       32 </v>
   <v type="int" >        4       15       16       29       32 </v>
   <v type="int" >        4        3        8       18       19 </v>
   <v type="int" >        4        3       16       18       19 </v>
   <v type="int" >       12        3        4       15       18 </v>
   <v type="int" >        4        3       15       15       18 </v>
   <v type="int" >        4       36       37       39       41 </v>
   <v type="int" >        4       36       37       37       41 </v>
   <v type="int" >        4       30       36       37       41 </v>
   <v type="int" >        4       28       30       37       37 </v>
   <v type="int" >        4       28       36       37       37 </v>
   <v type="int" >        4       16       28       29       37 </v>
   <v type="int" >        4       16       28       30       37 </v>
   <v type="int" >        4       13       16       29       30 </v>
   <v type="int" >        4       13       28       29       30 </v>
   <v type="int" >        4        3       13       15       29 </v>
   <v type="int" >        4        3       13       16       29 </v>
   <v type="int" >        8        3       13       15       16 </v>
   <v type="int" >        4       13       13       15       16 </v>
   <v type="int" >        8        3       13       13       15 </v>
   <v type="int" >        8        3       13       15       15 </v>
   <v type="int" >        4       13       15       15       16 </v>
   <v type="int" >        4       14       28       30       36 </v>
   <v type="int" >        4        7       14       16       30 </v>
   <v type="int" >        4        2       13       16       28 </v>
   <v type="int" >        4        2       14       16       28 </v>
   <v type="int" >        8        2        7       14       16 </v>
   <v type="int" >        4        2        7        7       16 </v>
   <v type="int" >        4        3       13       13       14 </v>
   <v type="int" >        4        3       14       16       16 </v>
   <v type="int" >        4        2        2        7       13 </v>
   <v type="int" >        4        7       13       15       16 </v>
   <v type="int" >        4        3        7       13       15 </v>
   <v type="int" >        4        2        3        3       13 </v>
   <v type="int" >        4        3        3       13       15 </v>
   <v type="int" >        4        3        3        4       15 </v>
   <v type="int" >        4        4        5        9       25 </v>
   <v type="int" >        4        5        9       24       25 </v>
   <v type="int" >        4        9        9       12       27 </v>
   <v type="int" >        4        9       24       24       27 </v>
   <v type="int" >        4       11       12       12       25 </v>
   <v type="int" >        4        9        9        9       12 </v>
   <v type="int" >        4        9        9       12       25 </v>
   <v type="int" >        4        5        9        9       20 </v>
   <v type="int" >        4        9        9        9       20 </v>
   <v type="int" >       12        4        5       17       18 </v>
   <v type="int" >        4        5       17       18       31 </v>
   <v type="int" >        4        5       18       20       31 </v>
   <v type="int" >        4        4       15       17       29 </v>
   <v type="int" >        4        4       17       18       29 </v>
   <v type="int" >        4       17       18       29       32 </v>
   <v type="int" >        4       17       29       31       32 </v>
   <v type="int" >        4       15       16       18       30 </v>
   <v type="int" >        4       15       18       29       30 </v>
   <v type="int" >        4       18       30       32       32 </v>
   <v type="int" >        4       16       16       19       29 </v>
   <v type="int" >        4       18       19       29       31 </v>
   <v type="int" >        4       19       29       31       32 </v>
   <v type="int" >        4       15       16       18       18 </v>
   <v type="int" >        4       16       18       18       29 </v>
   <v type="int" >        4       18       18       29       31 </v>
   <v type="int" >        4       15       17       18       18 </v>
   <v type="int" >        4       17       18       18       20 </v>
   <v type="int" >        4       18       18       20       31 </v>
   <v type="int" >        4        4        9       15       17 </v>
   <v type="int" >        4        9       15       17       18 </v>
   <v type="int" >        8        9       17       18       20 </v>
   <v type="int" >        8        4        5        9       17 </v>
   <v type="int" >        4        9        9       17       20 </v>
   <v type="int" >        4        9       12       21       24 </v>
   <v type="int" >        4       11       12       21       24 </v>
   <v type="int" >        4        9        9       21       25 </v>
   <v type="int" >        4        9       12       21       25 </v>
   <v type="int" >       12        9       12       21       21 </v>
   <v type="int" >        8        9        9       20       21 </v>
   <v type="int" >        4        9       20       21       33 </v>
   <v type="int" >        4        9       21       21       33 </v>
   <v type="int" >        4        9       18       20       32 </v>
   <v type="int" >        4        9       20       21       32 </v>
   <v type="int" >        4       20       31       32       38 </v>
   <v type="int" >        4       20       32       33       38 </v>
   <v type="int" >        4       18       29       31       37 </v>
   <v type="int" >        4       18       31       32       37 </v>
   <v type="int" >        4       31       32       37       39 </v>
   <v type="int" >        4       31       37       38       39 </v>
   <v type="int" >        4       29       32       37       37 </v>
   <v type="int" >        8       32       32       37       38 </v>
   <v type="int" >        4       29       30       32       32 </v>
   <v type="int" >        4       29       31       32       32 </v>
   <v type="int" >        4       31       32       32       33 </v>
   <v type="int" >        4       32       32       33       38 </v>
   <v type="int" >        4       18       21       29       31 </v>
   <v type="int" >        4       21       29       31       32 </v>
   <v type="int" >        8       21       31       32       33 </v>
   <v type="int" >        8       18       20       21       31 </v>
   <v type="int" >        4       20       21       21       31 </v>
   <v type="int" >        4       21       21       31       33 </v>
   <v type="int" >        4        9       12       18       20 </v>
   <v type="int" >        4       12       18       20       21 </v>
   <v type="int" >        4       12       20       21       21 </v>
   <v type="int" >        4        9        9       12       20 </v>
   <v type="int" >        4        9       11       12       20 </v>
   <v type="int" >        4       11       12       20       21 </v>
   <v type="int" >        4       11       12       22       27 </v>
   <v type="int" >        4       11       21       22       34 </v>
   <v type="int" >        4       21       33       34       40 </v>
   <v type="int" >        4       21       34       34       40 </v>
   <v type="int" >        4       21       32       33       39 </v>
   <v type="int" >        4       21       33       34       39 </v>
   <v type="int" >        4       33       38       39       42 </v>
   <v type="int" >        4       33       39       40       42 </v>
   <v type="int" >        4       32       37       38       41 </v>
   <v type="int" >        4       32       38       39       41 </v>
   <v type="int" >        4       38       41       42       42 </v>
   <v type="int" >        4       37       37       39       39 </v>
   <v type="int" >        4       37       38       39       39 </v>
   <v type="int" >        4       38       39       39       40 </v>
   <v type="int" >        4       39       39       40       42 </v>
   <v type="int" >        4       32       34       37       38 </v>
   <v type="int" >        4       34       37       38       39 </v>
   <v type="int" >        8       32       33       34       38 </v>
   <v type="int" >        4       33       34       34       38 </v>
   <v type="int" >        4       34       34       38       40 </v>
   <v type="int" >        4       21       22       32       33 </v>
   <v type="int" >        4       22       32       33       34 </v>
   <v type="int" >        8       21       21       22       33 </v>
   <v type="int" >        4       12       12       21       21 </v>
   <v type="int" >        4       22       34       34       40 </v>
   <v type="int" >        4       34       40       40       43 </v>
   <v type="int" >        4       34       39       40       42 </v>
   <v type="int" >        4       34       40       40       42 </v>
   <v type="int" >        8       40       42       42       44 </v>
   <v type="int" >        8       40       42       43       44 </v>
   <v type="int" >        4       39       41       42       42 </v>
   <v type="int" >        4       39       42       42       42 </v>
   <v type="int" >        8       42       42       42       44 </v>
   <v type="int" >        4       41       42       42       42 </v>
   <v type="int" >        4       42       42       42       43 </v>
   <v type="int" >       20       42       42       43       44 </v>
   <v type="int" >        4       39       40       41       42 </v>
   <v type="int" >        4       40       41       42       42 </v>
   <v type="int" >       12       39       40       40       42 </v>
   <v type="int" >        4       40       40       40       42 </v>
   <v type="int" >        4       34       34       39       40 </v>
   <v type="int" >        4       34       40       40       40 </v>
   <v type="int" >        4       34       34       34       40 </v>
   <v type="int" >        4       33       34       40       40 </v>
   <v type="int" >        4       21       34       34       34 </v>
   <v type="int" >        4       20       21       21       34 </v>
   <v type="int" >        4       20       21       33       34 </v>
   <v type="int" >        4        9       12       21       22 </v>
   <v type="int" >        4        9       21       21       22 </v>
   <v type="int" >        4        5        9        9       21 </v>
   <v type="int" >        4        5        9       20       21 </v>
   <v type="int" >        4       40       42       43       43 </v>
   <v type="int" >        8       42       43       43       44 </v>
   <v type="int" >        6       43       43       44       44 </v>
   <v type="int" >       12       42       43       44       44 </v>
   <v type="int" >        4       42       42       44       44 </v>
   <v type="int" >        8       39       42       42       43 </v>
   <v type="int" >        4       38       39       40       43 </v>
   <v type="int" >        4       38       39       42       43 </v>
   <v type="int" >        4       32       34       40       40 </v>
   <v type="int" >        4       32       39       40       40 </v>
   <v type="int" >        4       31       32       33       40 </v>
   <v type="int" >        4       31       32       38       40 </v>
   <v type="int" >        4       18       21       33       34 </v>
   <v type="int" >        4       18       32       33       34 </v>
   <v type="int" >        4       17       18       20       33 </v>
   <v type="int" >        4       17       18       31       33 </v>
   <v type="int" >        4        4        9       20       21 </v>
   <v type="int" >        4        4       18       20       21 </v>
   <v type="int" >        4       41       42       43       44 </v>
   <v type="int" >        4       41       42       42       44 </v>
   <v type="int" >        4       39       41       42       44 </v>
   <v type="int" >        4       37       39       42       42 </v>
   <v type="int" >        4       37       41       42       42 </v>
   <v type="int" >        4       32       37       38       42 </v>
   <v type="int" >        4       32       37       39       42 </v>
   <v type="int" >        4       29       32       38       39 </v>
   <v type="int" >        4       29       37       38       39 </v>
   <v type="int" >        4       18       29       31       38 </v>
   <v type="int" >        4       18       29       32       38 </v>
   <v type="int" >        4       15       18       31       32 </v>
   <v type="int" >        4       15       29       31       32 </v>
   <v type="int" >        4        4       15       17       31 </v>
   <v type="int" >        4        4       15       18       31 </v>
   <v type="int" >        8        4       15       17       18 </v>
   <v type="int" >        4       15       15       17       18 </v>
   <v type="int" >        8        4       15       15       17 </v>
   <v type="int" >        8        4       15       17       17 </v>
   <v type="int" >        4       15       17       17       18 </v>
   <v type="int" >        4       30       37       39       41 </v>
   <v type="int" >        4       19       30       32       39 </v>
   <v type="int" >        4       16       29       32       37 </v>
   <v type="int" >        4       16       30       32       37 </v>
   <v type="int" >        4        8       16       18       32 </v>
   <v type="int" >        4        8       16       19       32 </v>
   <v type="int" >        4        3       15       18       29 </v>
   <v type="int" >        4        3       16       18       29 </v>
   <v type="int" >        8        3        8       16       18 </v>
   <v type="int" >        4        3        8        8       18 </v>
   <v type="int" >        4        4       15       15       16 </v>
   <v type="int" >        4        4       16       18       19 </v>
   <v type="int" >        4        4        8       16       19 </v>
   <v type="int" >        4        7       16       19       30 </v>
   <v type="int" >        8        7        8       16       19 </v>
   <v type="int" >        4        7        8       19       23 </v>
   <v type="int" >        4        7        7        8       16 </v>
   <v type="int" >        4        7        8        8        8 </v>
   <v type="int" >        4        3        8       16       16 </v>
   <v type="int" >        8        8       16       18       19 </v>
   <v type="int" >        4        8        8       16       18 </v>
   <v type="int" >        4        3        4        8       23 </v>
   <v type="int" >        4        7        8       15       16 </v>
   <v type="int" >        4        3        7        8       15 </v>
   <v type="int" >        4        8       15       17       18 </v>
   <v type="int" >        4        4        8       15       17 </v>
   <v type="int" >        4        3        4        4       15 </v>
   <v type="int" >        4        4        4       15       17 </v>
   <v type="int" >        4        4        4        5       17 </v>
   <v type="int" >        4        4        5        9       24 </v>
   <v type="int" >        4        4        8       23       24 </v>
   <v type="int" >        4        8        9       24       24 </v>
   <v type="int" >        4        8        8        8       24 </v>
   <v type="int" >        4        8        9        9       11 </v>
   <v type="int" >        4        8        8        9       18 </v>
   <v type="int" >        8        4        9        9       20 </v>
   <v type="int" >        8        4        9       18       20 </v>
   <v type="int" >        4        4       17       20       31 </v>
   <v type="int" >        4        4       18       20       31 </v>
   <v type="int" >        4        5       17       17       31 </v>
   <v type="int" >        4        5       17       20       31 </v>
   <v type="int" >        4       17       20       31       33 </v>
   <v type="int" >        4       17       31       31       33 </v>
   <v type="int" >        4       17       18       20       32 </v>
   <v type="int" >        4       17       20       31       32 </v>
   <v type="int" >        4       20       21       32       34 </v>
   <v type="int" >        4       20       32       33       34 </v>
   <v type="int" >        4       18       21       32       32 </v>
   <v type="int" >        4       21       21       32       33 </v>
   <v type="int" >        4       18       19       21       31 </v>
   <v type="int" >        4       19       21       31       32 </v>
   <v type="int" >        4       20       21       31       31 </v>
   <v type="int" >        4       21       31       31       33 </v>
   <v type="int" >        4       17       18       20       20 </v>
   <v type="int" >        4       18       20       20       31 </v>
   <v type="int" >        2       20       20       31       31 </v>
   <v type="int" >        2       17       17       20       20 </v>
   <v type="int" >        8        5        9       17       17 </v>
   <v type="int" >        4        9       17       17       20 </v>
   <v type="int" >        4        4        8        9       17 </v>
   <v type="int" >        4        8        9       17       18 </v>
   <v type="int" >        4        8       11       19       23 </v>
   <v type="int" >        4        8        9       21       24 </v>
   <v type="int" >        4        8       11       21       24 </v>
   <v type="int" >        8        8       11       19       21 </v>
   <v type="int" >        8        8        9       18       21 </v>
   <v type="int" >        4        8       18       21       32 </v>
   <v type="int" >        4        8       19       21       32 </v>
   <v type="int" >        4        9       18       20       33 </v>
   <v type="int" >        4        9       18       21       33 </v>
   <v type="int" >        4       18       31       33       38 </v>
   <v type="int" >        4       18       32       33       38 </v>
   <v type="int" >        4       20       31       31       38 </v>
   <v type="int" >        4       20       31       33       38 </v>
   <v type="int" >        4       31       33       38       40 </v>
   <v type="int" >        4       31       38       38       40 </v>
   <v type="int" >        4       31       32       33       39 </v>
   <v type="int" >        4       31       33       38       39 </v>
   <v type="int" >        4       33       39       40       40 </v>
   <v type="int" >        4       32       32       34       38 </v>
   <v type="int" >        4       33       34       38       38 </v>
   <v type="int" >        4       34       38       38       40 </v>
   <v type="int" >        4       31       32       33       33 </v>
   <v type="int" >        4       32       33       33       38 </v>
   <v type="int" >        2       33       33       38       38 </v>
   <v type="int" >        2       31       31       33       33 </v>
   <v type="int" >        4        9       11       18       20 </v>
   <v type="int" >        4       11       18       20       21 </v>
   <v type="int" >        4        8        8       11       18 </v>
   <v type="int" >        4       11       19       21       34 </v>
   <v type="int" >        4       19       32       34       39 </v>
   <v type="int" >        4       21       32       33       40 </v>
   <v type="int" >        4       21       32       34       40 </v>
   <v type="int" >        4       32       38       40       42 </v>
   <v type="int" >        4       32       39       40       42 </v>
   <v type="int" >        4       33       38       38       42 </v>
   <v type="int" >        4       33       38       40       42 </v>
   <v type="int" >        4       38       40       42       43 </v>
   <v type="int" >        4       38       42       42       43 </v>
   <v type="int" >        6       40       40       42       42 </v>
   <v type="int" >        4       38       39       40       40 </v>
   <v type="int" >        2       38       38       40       40 </v>
   <v type="int" >        4        9       19       21       21 </v>
   <v type="int" >        4        4        8        9       19 </v>
   <v type="int" >        4        4        9       18       19 </v>
   <v type="int" >        4       34       39       40       43 </v>
   <v type="int" >        4       39       42       43       44 </v>
   <v type="int" >        4       42       44       44       44 </v>
   <v type="int" >        6       42       42       43       43 </v>
   <v type="int" >        4        5        9       18       21 </v>
   <v type="int" >        4        5       18       20       21 </v>
   <v type="int" >        8        5       17       17       18 </v>
   <v type="int" >        4       43       44       44       44 </v>
   <v type="int" >        2       44       44       44       44 </v>
   <v type="int" >        4        5       17       17       20 </v>
   <v type="int" >        4       17       17       17       20 </v>
   <v type="int" >        8        5       17       17       17 </v>
   <v type="int" >        4        4        5        5       17 </v>
   <v type="int" >        4        5        5       17       17 </v>
   <v type="int" >        4        1        6       10       14 </v>
   <v type="int" >        4        1        2        7       14 </v>
   <v type="int" >        4        2       10       13       16 </v>
   <v type="int" >        4        2       10       14       16 </v>
   <v type="int" >        4        2        3        8       16 </v>
   <v type="int" >        4        2        7        8       16 </v>
   <v type="int" >        4        3       13       15       18 </v>
   <v type="int" >        4        3       13       16       18 </v>
   <v type="int" >        4        3        4        9       18 </v>
   <v type="int" >        4        3        8        9       18 </v>
   <v type="int" >        4        4       15       17       20 </v>
   <v type="int" >        4        4       15       18       20 </v>
   <v type="int" >        4        4        5        8       18 </v>
   <v type="int" >        4        5        8        9       18 </v>
   <v type="int" >        4        4       15       16       17 </v>
   <v type="int" >        4        4       16       17       18 </v>
   <v type="int" >        4        3        4        7       16 </v>
   <v type="int" >        4        4        7        8       16 </v>
   <v type="int" >        4        3       13       14       15 </v>
   <v type="int" >        4        3       14       15       16 </v>
   <v type="int" >        4        2        2        3       14 </v>
   <v type="int" >        6        2        2       10       10 </v>
   <v type="int" >        6        1        1       10       10 </v>
   <v type="int" >        4        6        6        6       10 </v>
   <v type="int" >        4        7       14       16       19 </v>
   <v type="int" >        4        7        8       11       19 </v>
   <v type="int" >        4        8       16       18       21 </v>
   <v type="int" >        4        8       16       19       21 </v>
   <v type="int" >        4        8        9       12       21 </v>
   <v type="int" >        4        8       11       12       21 </v>
   <v type="int" >        4        9       18       21       21 </v>
   <v type="int" >        4        9        9       11       21 </v>
   <v type="int" >        4        9       18       19       20 </v>
   <v type="int" >        4        9       19       20       21 </v>
   <v type="int" >        4        8        8        9       19 </v>
   <v type="int" >        4        8       16       16       18 </v>
   <v type="int" >        4        3        8        8       16 </v>
   <v type="int" >        4        7       13       16       16 </v>
   <v type="int" >        4        2        7       13       13 </v>
   <v type="int" >        4        3        7       13       13 </v>
   <v type="int" >        4        2        2       13       14 </v>
   <v type="int" >        2        2        2       13       13 </v>
   <v type="int" >        4        1       10       10       13 </v>
   <v type="int" >        4        1        2       10       13 </v>
   <v type="int" >        4        2        3       10       13 </v>
   <v type="int" >        4        3       10       13       13 </v>
   <v type="int" >        4       11       19       21       22 </v>
   <v type="int" >        4       12       21       21       21 </v>
   <v type="int" >        4        9       12       12       21 </v>
   <v type="int" >        4       11       18       21       21 </v>
   <v type="int" >        4        4        8       11       18 </v>
   <v type="int" >        4        4        9       11       18 </v>
   <v type="int" >        4        8       15       16       19 </v>
   <v type="int" >        4        8       15       18       19 </v>
   <v type="int" >        4        3        8       15       15 </v>
   <v type="int" >        4        4        8       15       15 </v>
   <v type="int" >        4        3        3       13       16 </v>
   <v type="int" >        4        3        3       15       16 </v>
   <v type="int" >        2        3        3       15       15 </v>
   <v type="int" >        2        3        3       13       13 </v>
   <v type="int" >        4        2       13       13       15 </v>
   <v type="int" >        4        2        3       13       15 </v>
   <v type="int" >        4        3        4       13       15 </v>
   <v type="int" >        4        4       13       15       15 </v>
[...]
       <r>    5.0733    0.0000 </r>
       <r>    8.8990    0.0000 </r>
       <r>   10.8333    0.0000 </r>
       <r>   14.7467    0.0000 </r>
       <r>   17.0684    0.0000 </r>
       <r>   21.4611    0.0000 </r>
       <r>   22.3339    0.0000 </r>
      </set>
      <set comment="kpoint 39">
       <r>  -67.5207    1.0000 </r>
       <r>  -67.4898    1.0000 </r>
       <r>  -67.4603    1.0000 </r>
       <r>   -0.8465    1.0000 </r>
       <r>   -0.7819    1.0000 </r>
       <r>   -0.4011    1.0000 </r>
       <r>   -0.2142    1.0000 </r>
       <r>   -0.0572    1.0000 </r>
       <r>    2.5077   -0.0335 </r>
       <r>    6.8440    0.0000 </r>
       <r>    7.3519    0.0000 </r>
       <r>   11.6268    0.0000 </r>
       <r>   12.9074    0.0000 </r>
       <r>   16.8572    0.0000 </r>
       <r>   21.6303    0.0000 </r>
       <r>   25.6092    0.0000 </r>
      </set>
      <set comment="kpoint 40">
       <r>  -67.5096    1.0000 </r>
       <r>  -67.4997    1.0000 </r>
       <r>  -67.4645    1.0000 </r>
       <r>   -0.8462    1.0000 </r>
       <r>   -0.8095    1.0000 </r>
       <r>   -0.4126    1.0000 </r>
       <r>   -0.1596    1.0000 </r>
       <r>   -0.0172    1.0000 </r>
       <r>    4.3765   -0.0015 </r>
       <r>    4.7495    0.0000 </r>
       <r>    6.8788    0.0000 </r>
       <r>   11.8229    0.0000 </r>
       <r>   14.1157    0.0000 </r>
       <r>   14.7560    0.0000 </r>
       <r>   21.4380    0.0000 </r>
       <r>   25.8172    0.0000 </r>
      </set>
      <set comment="kpoint 41">
       <r>  -67.4862    1.0000 </r>
       <r>  -67.4771    1.0000 </r>
       <r>  -67.4761    1.0000 </r>
       <r>   -0.8851    1.0000 </r>
       <r>   -0.7950    1.0000 </r>
       <r>   -0.2227    1.0000 </r>
       <r>   -0.2225    1.0000 </r>
       <r>   -0.1301    1.0000 </r>
       <r>    2.2446   -0.0132 </r>
       <r>    8.3726    0.0000 </r>
       <r>    8.3734    0.0000 </r>
       <r>    9.6645    0.0000 </r>
       <r>   11.4929    0.0000 </r>
       <r>   16.6667    0.0000 </r>
       <r>   25.3044    0.0000 </r>
       <r>   25.3652    0.0000 </r>
      </set>
      <set comment="kpoint 42">
       <r>  -67.4899    1.0000 </r>
       <r>  -67.4856    1.0000 </r>
       <r>  -67.4737    1.0000 </r>
       <r>   -0.9037    1.0000 </r>
       <r>   -0.8795    1.0000 </r>
       <r>   -0.1983    1.0000 </r>
       <r>   -0.1512    1.0000 </r>
       <r>   -0.0187    1.0000 </r>
       <r>    4.0215   -0.0066 </r>
       <r>    6.2989    0.0000 </r>
       <r>    7.7816    0.0000 </r>
       <r>    9.8897    0.0000 </r>
       <r>   11.9787    0.0000 </r>
       <r>   14.0698    0.0000 </r>
       <r>   24.8919    0.0000 </r>
       <r>   25.7372    0.0000 </r>
      </set>
      <set comment="kpoint 43">
       <r>  -67.4727    1.0000 </r>
       <r>  -67.4714    1.0000 </r>
       <r>  -67.4565    1.0000 </r>
       <r>   -0.9152    1.0000 </r>
       <r>   -0.9152    1.0000 </r>
       <r>   -0.1775    1.0000 </r>
       <r>   -0.0320    1.0000 </r>
       <r>   -0.0317    1.0000 </r>
       <r>    5.6012    0.0000 </r>
       <r>    6.2306    0.0000 </r>
       <r>    6.2316    0.0000 </r>
       <r>   10.3442    0.0000 </r>
       <r>   12.1354    0.0000 </r>
       <r>   12.1356    0.0000 </r>
       <r>   25.0342    0.0000 </r>
       <r>   29.3391    0.0000 </r>
      </set>
      <set comment="kpoint 44">
       <r>  -67.4912    1.0000 </r>
       <r>  -67.4903    1.0000 </r>
       <r>  -67.4750    1.0000 </r>
       <r>   -0.9661    1.0000 </r>
       <r>   -0.9587    1.0000 </r>
       <r>   -0.0483    1.0000 </r>
       <r>   -0.0481    1.0000 </r>
       <r>   -0.0313    1.0000 </r>
       <r>    5.6881    0.0000 </r>
       <r>    7.1725    0.0000 </r>
       <r>    7.1733    0.0000 </r>
       <r>    8.7367    0.0000 </r>
       <r>   10.8036    0.0000 </r>
       <r>   11.7176    0.0000 </r>
       <r>   28.1691    0.0000 </r>
       <r>   29.1360    0.0000 </r>
      </set>
     </set>
    </set>
   </array>
  </eigenvalues>
  <separator name="orbital magnetization" >
   <v name="MAGDIPOLOUT">      0.00000000      0.00000000      0.00000000</v>
  </separator>
  <dos>
   <i name="efermi">      1.33668642 </i>
   <total>
    <array>
     <dimension dim="1">gridpoints</dimension>
     <dimension dim="2">spin</dimension>
     <field>energy</field>
     <field>total</field>
     <field>integrated</field>
     <set>
      <set comment="spin 1">
       <r>   -72.4235     0.0000     0.0000 </r>
       <r>   -72.0681     0.0000     0.0000 </r>
       <r>   -71.7128     0.0000     0.0000 </r>
       <r>   -71.3574     0.0000     0.0000 </r>
       <r>   -71.0021     0.0000     0.0000 </r>
       <r>   -70.6467     0.0000     0.0000 </r>
       <r>   -70.2913     0.0000     0.0000 </r>
       <r>   -69.9360     0.0000     0.0000 </r>
       <r>   -69.5806     0.0000     0.0000 </r>
       <r>   -69.2253     0.0000     0.0000 </r>
       <r>   -68.8699     0.0000     0.0000 </r>
       <r>   -68.5145     0.0000     0.0000 </r>
       <r>   -68.1592     0.0000     0.0000 </r>
       <r>   -67.8038     0.0000     0.0000 </r>
       <r>   -67.4484     0.0000     6.0000 </r>
       <r>   -67.0931     0.0000     6.0000 </r>
       <r>   -66.7377     0.0000     6.0000 </r>
       <r>   -66.3824     0.0000     6.0000 </r>
       <r>   -66.0270     0.0000     6.0000 </r>
       <r>   -65.6716     0.0000     6.0000 </r>
       <r>   -65.3163     0.0000     6.0000 </r>
       <r>   -64.9609     0.0000     6.0000 </r>
       <r>   -64.6056     0.0000     6.0000 </r>
       <r>   -64.2502     0.0000     6.0000 </r>
       <r>   -63.8948     0.0000     6.0000 </r>
       <r>   -63.5395     0.0000     6.0000 </r>
       <r>   -63.1841     0.0000     6.0000 </r>
       <r>   -62.8287     0.0000     6.0000 </r>
       <r>   -62.4734     0.0000     6.0000 </r>
       <r>   -62.1180     0.0000     6.0000 </r>
       <r>   -61.7627     0.0000     6.0000 </r>
       <r>   -61.4073     0.0000     6.0000 </r>
       <r>   -61.0519     0.0000     6.0000 </r>
       <r>   -60.6966     0.0000     6.0000 </r>
       <r>   -60.3412     0.0000     6.0000 </r>
       <r>   -59.9859     0.0000     6.0000 </r>
       <r>   -59.6305     0.0000     6.0000 </r>
       <r>   -59.2751     0.0000     6.0000 </r>
       <r>   -58.9198     0.0000     6.0000 </r>
       <r>   -58.5644     0.0000     6.0000 </r>
       <r>   -58.2091     0.0000     6.0000 </r>
       <r>   -57.8537     0.0000     6.0000 </r>
       <r>   -57.4983     0.0000     6.0000 </r>
       <r>   -57.1430     0.0000     6.0000 </r>
       <r>   -56.7876     0.0000     6.0000 </r>
       <r>   -56.4322     0.0000     6.0000 </r>
       <r>   -56.0769     0.0000     6.0000 </r>
       <r>   -55.7215     0.0000     6.0000 </r>
       <r>   -55.3662     0.0000     6.0000 </r>
       <r>   -55.0108     0.0000     6.0000 </r>
       <r>   -54.6554     0.0000     6.0000 </r>
       <r>   -54.3001     0.0000     6.0000 </r>
       <r>   -53.9447     0.0000     6.0000 </r>
       <r>   -53.5894     0.0000     6.0000 </r>
       <r>   -53.2340     0.0000     6.0000 </r>
       <r>   -52.8786     0.0000     6.0000 </r>
       <r>   -52.5233     0.0000     6.0000 </r>
       <r>   -52.1679     0.0000     6.0000 </r>
       <r>   -51.8125     0.0000     6.0000 </r>
       <r>   -51.4572     0.0000     6.0000 </r>
       <r>   -51.1018     0.0000     6.0000 </r>
       <r>   -50.7465     0.0000     6.0000 </r>
       <r>   -50.3911     0.0000     6.0000 </r>
       <r>   -50.0357     0.0000     6.0000 </r>
       <r>   -49.6804     0.0000     6.0000 </r>
       <r>   -49.3250     0.0000     6.0000 </r>
       <r>   -48.9697     0.0000     6.0000 </r>
       <r>   -48.6143     0.0000     6.0000 </r>
       <r>   -48.2589     0.0000     6.0000 </r>
       <r>   -47.9036     0.0000     6.0000 </r>
       <r>   -47.5482     0.0000     6.0000 </r>
       <r>   -47.1928     0.0000     6.0000 </r>
       <r>   -46.8375     0.0000     6.0000 </r>
       <r>   -46.4821     0.0000     6.0000 </r>
       <r>   -46.1268     0.0000     6.0000 </r>
       <r>   -45.7714     0.0000     6.0000 </r>
       <r>   -45.4160     0.0000     6.0000 </r>
       <r>   -45.0607     0.0000     6.0000 </r>
       <r>   -44.7053     0.0000     6.0000 </r>
       <r>   -44.3500     0.0000     6.0000 </r>
       <r>   -43.9946     0.0000     6.0000 </r>
       <r>   -43.6392     0.0000     6.0000 </r>
       <r>   -43.2839     0.0000     6.0000 </r>
       <r>   -42.9285     0.0000     6.0000 </r>
       <r>   -42.5732     0.0000     6.0000 </r>
       <r>   -42.2178     0.0000     6.0000 </r>
       <r>   -41.8624     0.0000     6.0000 </r>
       <r>   -41.5071     0.0000     6.0000 </r>
       <r>   -41.1517     0.0000     6.0000 </r>
       <r>   -40.7963     0.0000     6.0000 </r>
       <r>   -40.4410     0.0000     6.0000 </r>
       <r>   -40.0856     0.0000     6.0000 </r>
       <r>   -39.7303     0.0000     6.0000 </r>
       <r>   -39.3749     0.0000     6.0000 </r>
       <r>   -39.0195     0.0000     6.0000 </r>
       <r>   -38.6642     0.0000     6.0000 </r>
       <r>   -38.3088     0.0000     6.0000 </r>
       <r>   -37.9535     0.0000     6.0000 </r>
       <r>   -37.5981     0.0000     6.0000 </r>
       <r>   -37.2427     0.0000     6.0000 </r>
       <r>   -36.8874     0.0000     6.0000 </r>
       <r>   -36.5320     0.0000     6.0000 </r>
       <r>   -36.1766     0.0000     6.0000 </r>
       <r>   -35.8213     0.0000     6.0000 </r>
       <r>   -35.4659     0.0000     6.0000 </r>
       <r>   -35.1106     0.0000     6.0000 </r>
       <r>   -34.7552     0.0000     6.0000 </r>
       <r>   -34.3998     0.0000     6.0000 </r>
       <r>   -34.0445     0.0000     6.0000 </r>
       <r>   -33.6891     0.0000     6.0000 </r>
       <r>   -33.3338     0.0000     6.0000 </r>
       <r>   -32.9784     0.0000     6.0000 </r>
       <r>   -32.6230     0.0000     6.0000 </r>
       <r>   -32.2677     0.0000     6.0000 </r>
       <r>   -31.9123     0.0000     6.0000 </r>
       <r>   -31.5570     0.0000     6.0000 </r>
       <r>   -31.2016     0.0000     6.0000 </r>
       <r>   -30.8462     0.0000     6.0000 </r>
       <r>   -30.4909     0.0000     6.0000 </r>
       <r>   -30.1355     0.0000     6.0000 </r>
       <r>   -29.7801     0.0000     6.0000 </r>
       <r>   -29.4248     0.0000     6.0000 </r>
       <r>   -29.0694     0.0000     6.0000 </r>
       <r>   -28.7141     0.0000     6.0000 </r>
       <r>   -28.3587     0.0000     6.0000 </r>
       <r>   -28.0033     0.0000     6.0000 </r>
       <r>   -27.6480     0.0000     6.0000 </r>
       <r>   -27.2926     0.0000     6.0000 </r>
       <r>   -26.9373     0.0000     6.0000 </r>
       <r>   -26.5819     0.0000     6.0000 </r>
       <r>   -26.2265     0.0000     6.0000 </r>
       <r>   -25.8712     0.0000     6.0000 </r>
       <r>   -25.5158     0.0000     6.0000 </r>
       <r>   -25.1604     0.0000     6.0000 </r>
       <r>   -24.8051     0.0000     6.0000 </r>
       <r>   -24.4497     0.0000     6.0000 </r>
       <r>   -24.0944     0.0000     6.0000 </r>
       <r>   -23.7390     0.0000     6.0000 </r>
       <r>   -23.3836     0.0000     6.0000 </r>
       <r>   -23.0283     0.0000     6.0000 </r>
       <r>   -22.6729     0.0000     6.0000 </r>
       <r>   -22.3176     0.0000     6.0000 </r>
       <r>   -21.9622     0.0000     6.0000 </r>
       <r>   -21.6068     0.0000     6.0000 </r>
       <r>   -21.2515     0.0000     6.0000 </r>
       <r>   -20.8961     0.0000     6.0000 </r>
       <r>   -20.5408     0.0000     6.0000 </r>
       <r>   -20.1854     0.0000     6.0000 </r>
       <r>   -19.8300     0.0000     6.0000 </r>
       <r>   -19.4747     0.0000     6.0000 </r>
       <r>   -19.1193     0.0000     6.0000 </r>
       <r>   -18.7639     0.0000     6.0000 </r>
       <r>   -18.4086     0.0000     6.0000 </r>
       <r>   -18.0532     0.0000     6.0000 </r>
       <r>   -17.6979     0.0000     6.0000 </r>
       <r>   -17.3425     0.0000     6.0000 </r>
       <r>   -16.9871     0.0000     6.0000 </r>
       <r>   -16.6318     0.0000     6.0000 </r>
       <r>   -16.2764     0.0000     6.0000 </r>
       <r>   -15.9211     0.0000     6.0000 </r>
       <r>   -15.5657     0.0000     6.0000 </r>
       <r>   -15.2103     0.0000     6.0000 </r>
       <r>   -14.8550     0.0000     6.0000 </r>
       <r>   -14.4996     0.0000     6.0000 </r>
       <r>   -14.1442     0.0000     6.0000 </r>
       <r>   -13.7889     0.0000     6.0000 </r>
       <r>   -13.4335     0.0000     6.0000 </r>
       <r>   -13.0782     0.0000     6.0000 </r>
       <r>   -12.7228     0.0000     6.0000 </r>
       <r>   -12.3674     0.0000     6.0000 </r>
       <r>   -12.0121     0.0000     6.0000 </r>
       <r>   -11.6567     0.0000     6.0000 </r>
       <r>   -11.3014     0.0000     6.0000 </r>
       <r>   -10.9460     0.0000     6.0000 </r>
       <r>   -10.5906     0.0000     6.0000 </r>
       <r>   -10.2353     0.0000     6.0000 </r>
       <r>    -9.8799     0.0000     6.0000 </r>
       <r>    -9.5245     0.0000     6.0000 </r>
       <r>    -9.1692     0.0000     6.0000 </r>
       <r>    -8.8138     0.0000     6.0000 </r>
       <r>    -8.4585     0.0000     6.0000 </r>
       <r>    -8.1031     0.0000     6.0000 </r>
       <r>    -7.7477     0.0000     6.0000 </r>
       <r>    -7.3924     0.0000     6.0000 </r>
       <r>    -7.0370     0.0000     6.0000 </r>
       <r>    -6.6817     0.0000     6.0000 </r>
       <r>    -6.3263     0.0000     6.0000 </r>
       <r>    -5.9709     0.0000     6.0000 </r>
       <r>    -5.6156     0.0000     6.0000 </r>
       <r>    -5.2602     0.0000     6.0000 </r>
       <r>    -4.9049     0.0000     6.0000 </r>
       <r>    -4.5495     0.0000     6.0000 </r>
       <r>    -4.1941     0.0000     6.0000 </r>
       <r>    -3.8388     0.0444     6.0032 </r>
       <r>    -3.4834     0.1143     6.0318 </r>
       <r>    -3.1280     0.1477     6.0764 </r>
       <r>    -2.7727     0.1907     6.1369 </r>
       <r>    -2.4173     0.2323     6.2109 </r>
       <r>    -2.0620     0.3020     6.3052 </r>
       <r>    -1.7066     0.4442     6.4347 </r>
       <r>    -1.3512     0.8000     6.6425 </r>
       <r>    -0.9959     2.4591     7.2949 </r>
       <r>    -0.6405     7.2825     9.7448 </r>
       <r>    -0.2852    14.0198    12.5259 </r>
       <r>     0.0702     0.6403    16.4081 </r>
       <r>     0.4256     0.5105    16.6081 </r>
       <r>     0.7809     0.4151    16.7696 </r>
       <r>     1.1363     0.4140    16.9160 </r>
       <r>     1.4917     0.4402    17.0675 </r>
       <r>     1.8470     0.4568    17.2266 </r>
       <r>     2.2024     0.4496    17.3946 </r>
       <r>     2.5577     0.3604    17.5396 </r>
       <r>     2.9131     0.3328    17.6627 </r>
       <r>     3.2685     0.3491    17.7827 </r>
       <r>     3.6238     0.3509    17.9217 </r>
       <r>     3.9792     0.3927    18.0478 </r>
       <r>     4.3345     0.4764    18.2100 </r>
       <r>     4.6899     0.4803    18.3789 </r>
       <r>     5.0453     0.5163    18.5575 </r>
       <r>     5.4006     0.4627    18.7366 </r>
       <r>     5.7560     0.4030    18.8940 </r>
       <r>     6.1113     0.4958    19.0559 </r>
       <r>     6.4667     0.5219    19.2374 </r>
       <r>     6.8221     0.5319    19.4241 </r>
       <r>     7.1774     0.5379    19.6167 </r>
       <r>     7.5328     0.5603    19.8119 </r>
       <r>     7.8882     0.5332    20.0084 </r>
       <r>     8.2435     0.5341    20.1985 </r>
       <r>     8.5989     0.5289    20.3870 </r>
       <r>     8.9542     0.5230    20.5755 </r>
       <r>     9.3096     0.5222    20.7614 </r>
       <r>     9.6650     0.5156    20.9482 </r>
       <r>    10.0203     0.5500    21.1392 </r>
       <r>    10.3757     0.5352    21.3337 </r>
       <r>    10.7310     0.5294    21.5228 </r>
       <r>    11.0864     0.5982    21.7178 </r>
       <r>    11.4418     0.6278    21.9338 </r>
       <r>    11.7971     0.6688    22.1630 </r>
       <r>    12.1525     0.6889    22.4078 </r>
       <r>    12.5079     0.7744    22.6665 </r>
       <r>    12.8632     0.8908    22.9623 </r>
       <r>    13.2186     1.0479    23.3140 </r>
       <r>    13.5739     0.7871    23.6472 </r>
       <r>    13.9293     0.5069    23.8665 </r>
       <r>    14.2847     0.4036    24.0228 </r>
       <r>    14.6400     0.3539    24.1565 </r>
       <r>    14.9954     0.3319    24.2777 </r>
       <r>    15.3507     0.3383    24.3978 </r>
       <r>    15.7061     0.3797    24.5212 </r>
       <r>    16.0615     0.3919    24.6533 </r>
       <r>    16.4168     0.6537    24.8424 </r>
       <r>    16.7722     0.6798    25.0868 </r>
       <r>    17.1275     0.6623    25.3249 </r>
       <r>    17.4829     0.6610    25.5594 </r>
       <r>    17.8383     0.7667    25.8093 </r>
       <r>    18.1936     0.9438    26.1142 </r>
       <r>    18.5490     1.0826    26.4784 </r>
       <r>    18.9044     0.9202    26.8475 </r>
       <r>    19.2597     0.6961    27.1205 </r>
       <r>    19.6151     0.6534    27.3598 </r>
       <r>    19.9704     0.7456    27.6021 </r>
       <r>    20.3258     0.9383    27.9024 </r>
       <r>    20.6812     0.7985    28.2120 </r>
       <r>    21.0365     0.7446    28.4879 </r>
       <r>    21.3919     0.7453    28.7529 </r>
       <r>    21.7472     0.6733    29.0069 </r>
       <r>    22.1026     0.6633    29.2445 </r>
       <r>    22.4580     0.7260    29.4870 </r>
       <r>    22.8133     0.8914    29.7760 </r>
       <r>    23.1687     0.7967    30.0738 </r>
       <r>    23.5241     0.7703    30.3509 </r>
       <r>    23.8794     0.7741    30.6257 </r>
       <r>    24.2348     0.7755    30.9046 </r>
       <r>    24.5901     0.7732    31.1894 </r>
       <r>    24.9455     0.7385    31.4563 </r>
       <r>    25.3009     0.4150    31.6520 </r>
       <r>    25.6562     0.3076    31.7615 </r>
       <r>    26.0116     0.1951    31.8567 </r>
       <r>    26.3669     0.0877    31.9161 </r>
       <r>    26.7223     0.0591    31.9419 </r>
       <r>    27.0777     0.0386    31.9591 </r>
       <r>    27.4330     0.0262    31.9703 </r>
       <r>    27.7884     0.0201    31.9785 </r>
       <r>    28.1438     0.0155    31.9848 </r>
       <r>    28.4991     0.0106    31.9896 </r>
       <r>    28.8545     0.0088    31.9931 </r>
       <r>    29.2098     0.0253    31.9980 </r>
       <r>    29.5652     0.0000    32.0000 </r>
       <r>    29.9206     0.0000    32.0000 </r>
       <r>    30.2759     0.0000    32.0000 </r>
       <r>    30.6313     0.0000    32.0000 </r>
       <r>    30.9866     0.0000    32.0000 </r>
       <r>    31.3420     0.0000    32.0000 </r>
       <r>    31.6974     0.0000    32.0000 </r>
       <r>    32.0527     0.0000    32.0000 </r>
       <r>    32.4081     0.0000    32.0000 </r>
       <r>    32.7634     0.0000    32.0000 </r>
       <r>    33.1188     0.0000    32.0000 </r>
       <r>    33.4742     0.0000    32.0000 </r>
       <r>    33.8295     0.0000    32.0000 </r>
       <r>    34.1849     0.0000    32.0000 </r>
      </set>
     </set>
    </array>
   </total>
  </dos>
 </calculation>
 <structure name="finalpos" >
  <crystal>
   <varray name="basis" >
    <v>       1.80500000       1.80500000      -1.80500000 </v>
    <v>      -1.80500000       1.80500000       1.80500000 </v>
    <v>       1.80500000      -1.80500000       1.80500000 </v>
   </varray>
   <i name="volume">     23.52294050 </i>
   <varray name="rec_basis" >
    <v>       0.27700831       0.27700831       0.00000000 </v>
    <v>       0.00000000       0.27700831       0.27700831 </v>
    <v>       0.27700831       0.00000000       0.27700831 </v>
   </varray>
  </crystal>
  <varray name="positions" >
   <v>       0.00000000       0.00000000       0.00000000 </v>
  </varray>
 </structure>
</modeling>
