unknown system                          
   1.00000000000000     
     4.592200    0.000000    0.000000
     0.000000    4.592200    0.000000
     0.000000    0.000000    2.957400
   O    Ti
     4     2
Direct
  0.304960  0.304960  0.000000
  0.695040  0.695040  0.000000
  0.195040  0.804960  0.500000
  0.804960  0.195040  0.500000
  0.000000  0.000000  0.000000
  0.500000  0.500000  0.500000
 
   40   40   28
  931.57      879.03      738.79      553.46      369.61      219.69      116.10      55.577      26.696      15.684    
  11.197      9.1077      7.9684      7.0727      6.0998      5.0170      4.0054      3.2123      2.6154      2.1847    
  2.0155      2.1847      2.6154      3.2123      4.0054      5.0170      6.0998      7.0727      7.9684      9.1077    
  11.197      15.684      26.696      55.577      116.10      219.69      369.61      553.46      738.79      879.03    
  879.03      829.62      697.91      523.98      351.32      210.21      112.45      55.358      28.334      18.141    
  13.886      11.812      10.568      9.5108      8.3342      6.9880      5.6458      4.4798      3.5070      2.7283    
  2.2581      2.1711      2.3384      2.5648      2.8008      3.0939      3.4397      3.8481      4.5032      5.7686    
  8.2407      13.120      23.922      51.088      107.82      205.37      347.13      521.29      696.82      829.44    
  738.79      697.91      588.32      443.34      299.05      180.79      98.812      51.225      28.971      20.262    
  16.062      13.716      12.208      11.067      10.000      8.8471      7.6211      6.3768      5.1152      3.9159    
  3.0106      2.5662      2.4777      2.5053      2.5340      2.5837      2.6763      2.8735      3.4003      4.6131    
  6.9991      11.503      20.625      42.796      89.625      171.09      290.28      437.10      585.09      696.82    
  553.46      523.98      443.34      336.06      228.82      140.70      79.883      45.240      29.559      23.135    
  19.827      17.903      16.474      15.129      13.679      12.106      10.512      8.9448      7.3364      5.7093    
  4.3002      3.3571      2.9005      2.7930      2.9449      3.3143      3.7934      4.2753      4.8298      5.7266    
  7.4115      10.719      17.328      32.903      66.717      126.80      215.74      325.86      437.10      521.29    
  369.61      351.32      299.05      228.82      158.25      100.37      61.137      39.895      31.127      27.779    
  26.673      26.240      25.380      23.586      20.892      17.758      14.761      12.198      9.9811      7.9305    
  6.0722      4.5873      3.6009      3.1312      3.1549      3.5813      4.2033      4.8133      5.3831      6.0890    
  7.2736      9.5843      14.166      23.833      45.056      83.868      142.42      215.74      290.28      347.13    
  219.69      210.21      180.79      140.70      100.37      67.858      47.080      37.466      34.940      35.902    
  38.535      40.800      41.001      38.370      33.314      27.139      21.299      16.634      13.159      10.459    
  8.1819      6.2188      4.6298      3.5291      2.9822      2.9114      3.1181      3.4557      3.9510      4.7310    
  5.9426      7.8922      11.249      17.110      28.680      50.288      83.868      126.80      171.09      205.37    
  116.10      112.45      98.812      79.883      61.137      47.080      40.055      39.693      44.346      52.947    
  63.033      71.047      73.678      69.390      59.231      46.260      33.876      24.226      17.688      13.469    
  10.514      8.0972      5.9747      4.2595      3.1429      2.6424      2.5804      2.7862      3.2438      4.0199    
  5.1531      6.7341      9.0758      12.719      18.487      28.680      45.056      66.717      89.625      107.82    
  55.577      55.358      51.225      45.240      39.895      37.466      39.693      48.172      64.367      86.931    
  111.03      129.81      137.14      130.21      110.84      84.717      58.835      38.400      25.082      17.495    
  13.128      10.063      7.5027      5.4102      3.9986      3.4034      3.5163      4.0039      4.5382      5.0355    
  5.6418      6.5321      7.8371      9.7749      12.719      17.110      23.833      32.903      42.796      51.088    
  26.696      28.334      28.971      29.559      31.127      34.940      44.346      64.367      97.594      140.20    
  182.25      212.26      223.67      214.84      186.95      145.10      99.786      61.877      36.778      23.165    
  16.235      12.054      9.0145      6.7161      5.0186      4.0638      4.0907      4.8030      5.4307      5.6209    
  5.7749      6.2980      7.0427      7.8371      9.0758      11.249      14.166      17.328      20.625      23.922    
  15.684      18.141      20.262      23.135      27.779      35.902      52.947      86.931      140.20      202.20    
  252.72      280.14      287.69      281.24      258.14      213.02      151.93      93.660      52.822      30.634    
  19.945      14.064      10.356      7.9127      5.7838      3.8927      3.1745      3.7680      4.4479      4.4590    
  4.5437      5.3828      6.2980      6.5321      6.7341      7.8922      9.5843      10.719      11.503      13.120    
  11.197      13.886      16.062      19.827      26.673      38.535      63.033      111.03      182.25      252.72    
  291.64      294.98      287.19      288.76      289.90      263.82      202.15      127.92      70.866      39.034    
  23.963      16.018      11.482      9.0082      6.6402      3.8751      2.4217      2.9797      3.7644      3.4941    
  3.3735      4.5437      5.7749      5.6418      5.1531      5.9426      7.2736      7.4115      6.9991      8.2407    
  9.1077      11.812      13.716      17.903      26.240      40.800      71.047      129.81      212.26      280.14    
  294.98      263.76      235.56      247.37      281.68      287.33      237.49      155.99      86.450      46.456    
  27.531      17.716      12.420      10.053      7.8366      4.8000      3.1898      4.0664      5.0263      4.2667    
  3.4941      4.4590      5.6209      5.0355      4.0199      4.7310      6.0890      5.7266      4.6131      5.7686    
  7.9684      10.568      12.208      16.474      25.380      41.001      73.678      137.14      223.67      287.69    
  287.19      235.56      195.53      213.35      267.52      293.30      253.01      170.02      94.808      50.714    
  29.747      18.904      13.171      10.855      8.7757      5.6891      4.0666      5.1244      6.1357      5.0263    
  3.7644      4.4479      5.4307      4.5382      3.2438      3.9510      5.3831      4.8298      3.4003      4.5032    
  7.0727      9.5108      11.067      15.129      23.586      38.370      69.390      130.21      214.84      281.24    
  288.76      247.37      213.35      229.01      274.99      292.57      248.57      166.29      93.256      50.510    
  30.047      19.391      13.673      11.179      8.8515      5.5365      3.6261      4.3305      5.1244      4.0664    
  2.9797      3.7680      4.8030      4.0039      2.7862      3.4557      4.8133      4.2753      2.8735      3.8481    
  6.0998      8.3342      10.000      13.679      20.892      33.314      59.231      110.84      186.95      258.14    
  289.90      281.68      267.52      274.99      291.54      280.06      223.84      146.00      82.610      46.155    
  28.524      19.163      13.884      11.129      8.5133      5.2815      3.3587      3.6261      4.0666      3.1898    
  2.4217      3.1745      4.0907      3.5163      2.5804      3.1181      4.2033      3.7934      2.6763      3.4397    
  5.0170      6.9880      8.8471      12.106      17.758      27.139      46.260      84.717      145.10      213.02    
  263.82      287.33      293.30      292.57      280.06      242.56      180.71      115.18      66.685      39.354    
  25.861      18.431      13.904      11.131      8.7427      6.4261      5.2815      5.5365      5.6891      4.8000    
  3.8751      3.8927      4.0638      3.4034      2.6424      2.9114      3.5813      3.3143      2.5837      3.0939    
  4.0054      5.6458      7.6211      10.512      14.761      21.299      33.876      58.835      99.786      151.93    
  202.15      237.49      253.01      248.57      223.84      180.71      128.81      82.433      50.251      32.232    
  22.977      17.587      13.999      11.581      9.8548      8.7427      8.5133      8.8515      8.7757      7.8366    
  6.6402      5.7838      5.0186      3.9986      3.1429      2.9822      3.1549      2.9449      2.5340      2.8008    
  3.2123      4.4798      6.3768      8.9448      12.198      16.634      24.226      38.400      61.877      93.660    
  127.92      155.99      170.02      166.29      146.00      115.18      82.433      55.203      36.848      26.354    
  20.614      17.034      14.469      12.668      11.581      11.131      11.129      11.179      10.855      10.053    
  9.0082      7.9127      6.7161      5.4102      4.2595      3.5291      3.1312      2.7930      2.5053      2.5648    
  2.6154      3.5070      5.1152      7.3364      9.9811      13.159      17.688      25.082      36.778      52.822    
  70.866      86.450      94.808      93.256      82.610      66.685      50.251      36.848      27.742      22.292    
  19.093      16.992      15.470      14.469      13.999      13.904      13.884      13.673      13.171      12.420    
  11.482      10.356      9.0145      7.5027      5.9747      4.6298      3.6009      2.9005      2.4777      2.3384    
  2.1847      2.7283      3.9159      5.7093      7.9305      10.459      13.469      17.495      23.165      30.634    
  39.034      46.456      50.714      50.510      46.155      39.354      32.232      26.354      22.292      19.810    
  18.344      17.450      16.992      17.034      17.587      18.431      19.163      19.391      18.904      17.716    
  16.018      14.064      12.054      10.063      8.0972      6.2188      4.5873      3.3571      2.5662      2.1711    
  2.0155      2.2581      3.0106      4.3002      6.0722      8.1819      10.514      13.128      16.235      19.945    
  23.963      27.531      29.747      30.047      28.524      25.861      22.977      20.614      19.093      18.344    
  18.133      18.344      19.093      20.614      22.977      25.861      28.524      30.047      29.747      27.531    
  23.963      19.945      16.235      13.128      10.514      8.1819      6.0722      4.3002      3.0106      2.2581    
  2.1847      2.1711      2.5662      3.3571      4.5873      6.2188      8.0972      10.063      12.054      14.064    
  16.018      17.716      18.904      19.391      19.163      18.431      17.587      17.034      16.992      17.450    
  18.344      19.810      22.292      26.354      32.232      39.354      46.155      50.510      50.714      46.456    
  39.034      30.634      23.165      17.495      13.469      10.459      7.9305      5.7093      3.9159      2.7283    
  2.6154      2.3384      2.4777      2.9005      3.6009      4.6298      5.9747      7.5027      9.0145      10.356    
  11.482      12.420      13.171      13.673      13.884      13.904      13.999      14.469      15.470      16.992    
  19.093      22.292      27.742      36.848      50.251      66.685      82.610      93.256      94.808      86.450    
  70.866      52.822      36.778      25.082      17.688      13.159      9.9811      7.3364      5.1152      3.5070    
  3.2123      2.5648      2.5053      2.7930      3.1312      3.5291      4.2595      5.4102      6.7161      7.9127    
  9.0082      10.053      10.855      11.179      11.129      11.131      11.581      12.668      14.469      17.034    
  20.614      26.354      36.848      55.203      82.433      115.18      146.00      166.29      170.02      155.99    
  127.92      93.660      61.877      38.400      24.226      16.634      12.198      8.9448      6.3768      4.4798    
  4.0054      2.8008      2.5340      2.9449      3.1549      2.9822      3.1429      3.9986      5.0186      5.7838    
  6.6402      7.8366      8.7757      8.8515      8.5133      8.7427      9.8548      11.581      13.999      17.587    
  22.977      32.232      50.251      82.433      128.81      180.71      223.84      248.57      253.01      237.49    
  202.15      151.93      99.786      58.835      33.876      21.299      14.761      10.512      7.6211      5.6458    
  5.0170      3.0939      2.5837      3.3143      3.5813      2.9114      2.6424      3.4034      4.0638      3.8927    
  3.8751      4.8000      5.6891      5.5365      5.2815      6.4261      8.7427      11.131      13.904      18.431    
  25.861      39.354      66.685      115.18      180.71      242.56      280.06      292.57      293.30      287.33    
  263.82      213.02      145.10      84.717      46.260      27.139      17.758      12.106      8.8471      6.9880    
  6.0998      3.4397      2.6763      3.7934      4.2033      3.1181      2.5804      3.5163      4.0907      3.1745    
  2.4217      3.1898      4.0666      3.6261      3.3587      5.2815      8.5133      11.129      13.884      19.163    
  28.524      46.155      82.610      146.00      223.84      280.06      291.54      274.99      267.52      281.68    
  289.90      258.14      186.95      110.84      59.231      33.314      20.892      13.679      10.000      8.3342    
  7.0727      3.8481      2.8735      4.2753      4.8133      3.4557      2.7862      4.0039      4.8030      3.7680    
  2.9797      4.0664      5.1244      4.3305      3.6261      5.5365      8.8515      11.179      13.673      19.391    
  30.047      50.510      93.256      166.29      248.57      292.57      274.99      229.01      213.35      247.37    
  288.76      281.24      214.84      130.21      69.390      38.370      23.586      15.129      11.067      9.5108    
  7.9684      4.5032      3.4003      4.8298      5.3831      3.9510      3.2438      4.5382      5.4307      4.4479    
  3.7644      5.0263      6.1357      5.1244      4.0666      5.6891      8.7757      10.855      13.171      18.904    
  29.747      50.714      94.808      170.02      253.01      293.30      267.52      213.35      195.53      235.56    
  287.19      287.69      223.67      137.14      73.678      41.001      25.380      16.474      12.208      10.568    
  9.1077      5.7686      4.6131      5.7266      6.0890      4.7310      4.0199      5.0355      5.6209      4.4590    
  3.4941      4.2667      5.0263      4.0664      3.1898      4.8000      7.8366      10.053      12.420      17.716    
  27.531      46.456      86.450      155.99      237.49      287.33      281.68      247.37      235.56      263.76    
  294.98      280.14      212.26      129.81      71.047      40.800      26.240      17.903      13.716      11.812    
  11.197      8.2407      6.9991      7.4115      7.2736      5.9426      5.1531      5.6418      5.7749      4.5437    
  3.3735      3.4941      3.7644      2.9797      2.4217      3.8751      6.6402      9.0082      11.482      16.018    
  23.963      39.034      70.866      127.92      202.15      263.82      289.90      288.76      287.19      294.98    
  291.64      252.72      182.25      111.03      63.033      38.535      26.673      19.827      16.062      13.886    
  15.684      13.120      11.503      10.719      9.5843      7.8922      6.7341      6.5321      6.2980      5.3828    
  4.5437      4.4590      4.4479      3.7680      3.1745      3.8927      5.7838      7.9127      10.356      14.064    
  19.945      30.634      52.822      93.660      151.93      213.02      258.14      281.24      287.69      280.14    
  252.72      202.20      140.20      86.931      52.947      35.902      27.779      23.135      20.262      18.141    
  26.696      23.922      20.625      17.328      14.166      11.249      9.0758      7.8371      7.0427      6.2980    
  5.7749      5.6209      5.4307      4.8030      4.0907      4.0638      5.0186      6.7161      9.0145      12.054    
  16.235      23.165      36.778      61.877      99.786      145.10      186.95      214.84      223.67      212.26    
  182.25      140.20      97.594      64.367      44.346      34.940      31.127      29.559      28.971      28.334    
  55.577      51.088      42.796      32.903      23.833      17.110      12.719      9.7749      7.8371      6.5321    
  5.6418      5.0355      4.5382      4.0039      3.5163      3.4034      3.9986      5.4102      7.5027      10.063    
  13.128      17.495      25.082      38.400      58.835      84.717      110.84      130.21      137.14      129.81    
  111.03      86.931      64.367      48.172      39.693      37.466      39.895      45.240      51.225      55.358    
  116.10      107.82      89.625      66.717      45.056      28.680      18.487      12.719      9.0758      6.7341    
  5.1531      4.0199      3.2438      2.7862      2.5804      2.6424      3.1429      4.2595      5.9747      8.0972    
  10.514      13.469      17.688      24.226      33.876      46.260      59.231      69.390      73.678      71.047    
  63.033      52.947      44.346      39.693      40.055      47.080      61.137      79.883      98.812      112.45    
  219.69      205.37      171.09      126.80      83.868      50.288      28.680      17.110      11.249      7.8922    
  5.9426      4.7310      3.9510      3.4557      3.1181      2.9114      2.9822      3.5291      4.6298      6.2188    
  8.1819      10.459      13.159      16.634      21.299      27.139      33.314      38.370      41.001      40.800    
  38.535      35.902      34.940      37.466      47.080      67.858      100.37      140.70      180.79      210.21    
  369.61      347.13      290.28      215.74      142.42      83.868      45.056      23.833      14.166      9.5843    
  7.2736      6.0890      5.3831      4.8133      4.2033      3.5813      3.1549      3.1312      3.6009      4.5873    
  6.0722      7.9305      9.9811      12.198      14.761      17.758      20.892      23.586      25.380      26.240    
  26.673      27.779      31.127      39.895      61.137      100.37      158.25      228.82      299.05      351.32    
  553.46      521.29      437.10      325.86      215.74      126.80      66.717      32.903      17.328      10.719    
  7.4115      5.7266      4.8298      4.2753      3.7934      3.3143      2.9449      2.7930      2.9005      3.3571    
  4.3002      5.7093      7.3364      8.9448      10.512      12.106      13.679      15.129      16.474      17.903    
  19.827      23.135      29.559      45.240      79.883      140.70      228.82      336.06      443.34      523.98    
  738.79      696.82      585.09      437.10      290.28      171.09      89.625      42.796      20.625      11.503    
  6.9991      4.6131      3.4003      2.8735      2.6763      2.5837      2.5340      2.5053      2.4777      2.5662    
  3.0106      3.9159      5.1152      6.3768      7.6211      8.8471      10.000      11.067      12.208      13.716    
  16.062      20.262      28.971      51.225      98.812      180.79      299.05      443.34      588.32      697.91    
  879.03      829.44      696.82      521.29      347.13      205.37      107.82      51.088      23.922      13.120    
  8.2407      5.7686      4.5032      3.8481      3.4397      3.0939      2.8008      2.5648      2.3384      2.1711    
  2.2581      2.7283      3.5070      4.4798      5.6458      6.9880      8.3342      9.5108      10.568      11.812    
  13.886      18.141      28.334      55.358      112.45      210.21      351.32      523.98      697.91      829.62    
  886.80      836.95      703.81      527.65      352.65      209.74      110.92      53.276      25.861      15.379    
  11.005      8.9466      7.8057      6.9039      5.9387      4.8854      3.9175      3.1678      2.6049      2.1960    
  2.0345      2.1960      2.6049      3.1678      3.9175      4.8854      5.9387      6.9039      7.8057      8.9466    
  11.005      15.379      25.861      53.276      110.92      209.74      352.65      527.65      703.81      836.95    
  836.95      789.71      664.40      498.96      334.63      200.24      107.16      52.928      27.367      17.701    
  13.587      11.573      10.354      9.3096      8.1522      6.8399      5.5398      4.4124      3.4714      2.7193    
  2.2668      2.1816      2.3358      2.5441      2.7680      3.0631      3.4294      3.8740      4.5677      5.8542    
  8.3047      13.074      23.399      49.244      103.39      196.60      331.90      497.77      664.56      790.24    
  703.81      664.40      559.85      421.78      284.45      171.93      94.046      49.001      28.054      19.814    
  15.789      13.539      12.082      10.963      9.9046      8.7576      7.5366      6.2969      5.0476      3.8727    
  2.9925      2.5574      2.4617      2.4818      2.5194      2.6004      2.7457      3.0121      3.6126      4.8847    
  7.2880      11.725      20.508      41.637      86.391      164.34      278.25      418.21      558.82      664.56    
  527.65      498.96      421.78      319.49      217.41      133.68      76.077      43.442      28.753      22.656    
  19.491      17.643      16.261      14.950      13.529      11.981      10.401      8.8377      7.2377      5.6328    
  4.2492      3.3180      2.8579      2.7459      2.9053      3.3000      3.8277      4.3884      5.0515      6.0688    
  7.8520      11.186      17.642      32.520      64.842      122.37      207.44      312.50      418.21      497.77    
  352.65      334.63      284.45      217.41      150.28      95.424      58.439      38.550      30.349      27.135    
  26.050      25.607      24.759      23.023      20.431      17.415      14.520      12.026      9.8530      7.8330    
  5.9942      4.5168      3.5333      3.0730      3.1174      3.5789      4.2622      4.9758      5.6951      6.5778    
  7.9288      10.343      14.904      24.189      44.436      81.536      137.51      207.44      278.25      331.90    
  209.74      200.24      171.93      133.68      95.424      64.776      45.329      36.395      33.992      34.857    
  37.305      39.406      39.557      37.035      32.223      26.351      20.789      16.329      12.981      10.346    
  8.0882      6.1257      4.5461      3.4795      2.9906      2.9990      3.3160      3.8075      4.4976      5.4905    
  6.8972      8.9805      12.361      18.057      29.046      49.575      81.536      122.37      164.34      196.60    
  110.92      107.16      94.046      76.077      58.439      45.329      38.847      38.520      42.869      50.950    
  60.444      67.984      70.439      66.359      56.736      44.460      32.742      23.599      17.377      13.314    
  10.408      7.9945      5.8818      4.2107      3.1748      2.7854      2.8684      3.2622      3.9480      4.9684    
  6.3237      8.0629      10.460      14.022      19.499      29.046      44.436      64.842      86.391      103.39    
  53.276      52.928      49.001      43.442      38.550      36.395      38.520      46.482      61.724      83.030    
  105.87      123.75      130.74      124.14      105.69      80.878      56.366      37.054      24.456      17.226    
  12.991      9.9584      7.4065      5.3418      3.9994      3.5134      3.7679      4.4376      5.2092      5.9845    
  6.8567      7.9438      9.3425      11.251      14.022      18.057      24.189      32.520      41.637      49.244    
  25.861      27.367      28.054      28.753      30.349      33.992      42.869      61.724      93.110      133.63    
  174.08      203.45      214.83      206.23      178.95      138.50      95.235      59.299      35.580      22.675    
  16.026      11.943      8.9250      6.6309      4.9848      4.1460      4.3172      5.1932      6.0458      6.5294    
  6.9717      7.6977      8.5432      9.3425      10.460      12.361      14.904      17.642      20.508      23.399    
  15.379      17.701      19.814      22.656      27.135      34.857      50.950      83.030      133.63      193.48    
  243.96      272.99      281.87      275.05      250.51      204.82      145.18      89.515      50.823      29.816    
  19.618      13.936      10.285      7.8299      5.7465      4.0086      3.4683      4.2136      5.0887      5.3797    
  5.7328      6.7250      7.6977      7.9438      8.0629      8.9805      10.343      11.186      11.725      13.074    
  11.005      13.587      15.789      19.491      26.050      37.305      60.444      105.87      174.08      243.96    
  286.53      295.90      291.95      292.05      287.81      256.92      194.22      122.29      67.997      37.835    
  23.494      15.866      11.435      8.9297      6.5880      4.0002      2.7451      3.4249      4.3573      4.3433    
  4.4663      5.7328      6.9717      6.8567      6.3237      6.8972      7.9288      7.8520      7.2880      8.3047    
  8.9466      11.573      13.539      17.643      25.607      39.406      67.984      123.75      203.45      272.99    
  295.90      275.70      254.14      263.29      287.84      283.72      229.60      149.35      82.880      44.931    
  26.940      17.545      12.391      9.9630      7.7276      4.8490      3.4134      4.3524      5.4007      4.8775    
  4.3433      5.3797      6.5294      5.9845      4.9684      5.4905      6.5778      6.0688      4.8847      5.8542    
  7.8057      10.354      12.082      16.261      24.759      39.557      70.439      130.74      214.83      281.87    
  291.95      254.14      222.32      236.87      278.86      292.04      245.53      163.04      90.920      49.034    
  29.099      18.729      13.153      10.754      8.6191      5.6643      4.1864      5.2568      6.3049      5.4007    
  4.3573      5.0887      6.0458      5.2092      3.9480      4.4976      5.6951      5.0515      3.6126      4.5677    
  6.9039      9.3096      10.963      14.950      23.023      37.035      66.359      124.14      206.23      275.05    
  292.05      263.29      236.87      249.59      284.43      290.57      241.08      159.53      89.531      48.903    
  29.433      19.232      13.662      11.086      8.7051      5.5201      3.7489      4.4549      5.2568      4.3524    
  3.4249      4.2136      5.1932      4.4376      3.2622      3.8075      4.9758      4.3884      3.0121      3.8740    
  5.9387      8.1522      9.9046      13.529      20.431      32.223      56.736      105.69      178.95      250.51    
  287.81      287.84      278.86      284.43      293.67      275.06      216.20      140.06      79.481      44.830    
  28.025      19.039      13.875      11.047      8.3954      5.2810      3.4798      3.7489      4.1864      3.4134    
  2.7451      3.4683      4.3172      3.7679      2.8684      3.3160      4.2622      3.8277      2.7457      3.4294    
  4.8854      6.8399      8.7576      11.981      17.415      26.351      44.460      80.878      138.50      204.82    
  256.92      283.72      292.04      290.57      275.06      235.23      173.73      110.59      64.406      38.420    
  25.521      18.346      13.883      11.043      8.6167      6.3637      5.2810      5.5201      5.6643      4.8490    
  4.0002      4.0086      4.1460      3.5134      2.7854      2.9990      3.5789      3.3000      2.6004      3.0631    
  3.9175      5.5398      7.5366      10.401      14.520      20.789      32.742      56.366      95.235      145.18    
  194.22      229.60      245.53      241.08      216.20      173.73      123.66      79.415      48.844      31.685    
  22.786      17.528      13.952      11.478      9.7147      8.6167      8.3954      8.7051      8.6191      7.7276    
  6.5880      5.7465      4.9848      3.9994      3.1748      2.9906      3.1174      2.9053      2.5194      2.7680    
  3.1678      4.4124      6.2969      8.8377      12.026      16.329      23.599      37.054      59.299      89.515    
  122.29      149.35      163.04      159.53      140.06      110.59      79.415      53.571      36.141      26.102    
  20.524      16.977      14.396      12.570      11.478      11.043      11.047      11.086      10.754      9.9630    
  8.9297      7.8299      6.6309      5.3418      4.2107      3.4795      3.0730      2.7459      2.4818      2.5441    
  2.6049      3.4714      5.0476      7.2377      9.8530      12.981      17.377      24.456      35.580      50.823    
  67.997      82.880      90.920      89.531      79.481      64.406      48.844      36.141      27.467      22.207    
  19.047      16.927      15.390      14.396      13.952      13.883      13.875      13.662      13.153      12.391    
  11.435      10.285      8.9250      7.4065      5.8818      4.5461      3.5333      2.8579      2.4617      2.3358    
  2.1960      2.7193      3.8727      5.6328      7.8330      10.346      13.314      17.226      22.675      29.816    
  37.835      44.931      49.034      48.903      44.830      38.420      31.685      26.102      22.207      19.778    
  18.302      17.388      16.927      16.977      17.528      18.346      19.039      19.232      18.729      17.545    
  15.866      13.936      11.943      9.9584      7.9945      6.1257      4.5168      3.3180      2.5574      2.1816    
  2.0345      2.2668      2.9925      4.2492      5.9942      8.0882      10.408      12.991      16.026      19.618    
  23.494      26.940      29.099      29.433      28.025      25.521      22.786      20.524      19.047      18.302    
  18.088      18.302      19.047      20.524      22.786      25.521      28.025      29.433      29.099      26.940    
  23.494      19.618      16.026      12.991      10.408      8.0882      5.9942      4.2492      2.9925      2.2668    