unknown system                          
   1.00000000000000     
     4.592200    0.000000    0.000000
     0.000000    4.592200    0.000000
     0.000000    0.000000    2.957400
   O    Ti
     4     2
Direct
  0.304960  0.304960  0.000000
  0.695040  0.695040  0.000000
  0.195040  0.804960  0.500000
  0.804960  0.195040  0.500000
  0.000000  0.000000  0.000000
  0.500000  0.500000  0.500000
 
   40   40   28
 0.93156964939E+03 0.87903028434E+03 0.73879051149E+03 0.55345722752E+03 0.36961288114E+03
 0.21969260235E+03 0.11609652690E+03 0.55577319299E+02 0.26695988522E+02 0.15684392626E+02
 0.11196685628E+02 0.91077078573E+01 0.79684319664E+01 0.70726934734E+01 0.60998388387E+01
 0.50169957455E+01 0.40054173516E+01 0.32123013498E+01 0.26153507085E+01 0.21846796354E+01
 0.20155050443E+01 0.21846796354E+01 0.26153507085E+01 0.32123013498E+01 0.40054173516E+01
 0.50169957455E+01 0.60998388387E+01 0.70726934734E+01 0.79684319664E+01 0.91077078573E+01
 0.11196685628E+02 0.15684392626E+02 0.26695988522E+02 0.55577319299E+02 0.11609652690E+03
 0.21969260235E+03 0.36961288114E+03 0.55345722752E+03 0.73879051149E+03 0.87903028434E+03
 0.87903028434E+03 0.82962054235E+03 0.69791476904E+03 0.52398269978E+03 0.35132168015E+03
 0.21020696363E+03 0.11244731202E+03 0.55358213726E+02 0.28334027095E+02 0.18140505810E+02
 0.13885876480E+02 0.11812225664E+02 0.10568256898E+02 0.95107557541E+01 0.83342058462E+01
 0.69879752743E+01 0.56457860479E+01 0.44798082106E+01 0.35069965364E+01 0.27283109375E+01
 0.22581250486E+01 0.21710500047E+01 0.23383620041E+01 0.25647904870E+01 0.28007745983E+01
 0.30939083167E+01 0.34396837343E+01 0.38480782311E+01 0.45032354524E+01 0.57685791343E+01
 0.82407296430E+01 0.13120107799E+02 0.23921919445E+02 0.51087566905E+02 0.10782288367E+03
 0.20537264403E+03 0.34712844215E+03 0.52128991072E+03 0.69682205797E+03 0.82943810956E+03
 0.73879051149E+03 0.69791476904E+03 0.58832116534E+03 0.44333869722E+03 0.29905270104E+03
 0.18078915628E+03 0.98811640887E+02 0.51225124181E+02 0.28971394248E+02 0.20262315334E+02
 0.16062039573E+02 0.13715957072E+02 0.12207501226E+02 0.11066523651E+02 0.10000167920E+02
 0.88470796402E+01 0.76210777335E+01 0.63768161534E+01 0.51152395421E+01 0.39158797291E+01
 0.30106162782E+01 0.25661996268E+01 0.24776960745E+01 0.25052695403E+01 0.25340298620E+01
 0.25837469661E+01 0.26763200869E+01 0.28735485481E+01 0.34002711770E+01 0.46131484056E+01
 0.69991117293E+01 0.11502787616E+02 0.20624554894E+02 0.42796117656E+02 0.89624726733E+02
 0.17108785142E+03 0.29027775873E+03 0.43709971969E+03 0.58508605939E+03 0.69682205797E+03
 0.55345722752E+03 0.52398269978E+03 0.44333869722E+03 0.33606207457E+03 0.22882112660E+03
 0.14069959793E+03 0.79883441665E+02 0.45240248018E+02 0.29558732791E+02 0.23135163133E+02
 0.19827450056E+02 0.17902852289E+02 0.16473548205E+02 0.15128604430E+02 0.13679282249E+02
 0.12105936750E+02 0.10512365766E+02 0.89448476297E+01 0.73363599233E+01 0.57092765454E+01
 0.43002199925E+01 0.33571132682E+01 0.29004725900E+01 0.27929944405E+01 0.29448856390E+01
 0.33143207059E+01 0.37934252377E+01 0.42752605529E+01 0.48297907641E+01 0.57265959361E+01
 0.74114617384E+01 0.10718959066E+02 0.17328424706E+02 0.32903050636E+02 0.66717176537E+02
 0.12680227509E+03 0.21573511793E+03 0.32586323156E+03 0.43709971969E+03 0.52128991072E+03
 0.36961288114E+03 0.35132168015E+03 0.29905270104E+03 0.22882112660E+03 0.15825147128E+03
 0.10036754597E+03 0.61137301491E+02 0.39894666783E+02 0.31127248514E+02 0.27779147344E+02
 0.26673017858E+02 0.26240204733E+02 0.25380026939E+02 0.23585737171E+02 0.20892398877E+02
 0.17758180302E+02 0.14760883084E+02 0.12198264449E+02 0.99811334672E+01 0.79304913548E+01
 0.60722007479E+01 0.45873425575E+01 0.36008890538E+01 0.31311647127E+01 0.31549197116E+01
 0.35812820197E+01 0.42032868814E+01 0.48132995264E+01 0.53831458226E+01 0.60889790905E+01
 0.72736340054E+01 0.95842592138E+01 0.14165839278E+02 0.23832919059E+02 0.45055901995E+02
 0.83867797921E+02 0.14242384915E+03 0.21573511793E+03 0.29027775873E+03 0.34712844215E+03
 0.21969260235E+03 0.21020696363E+03 0.18078915628E+03 0.14069959793E+03 0.10036754597E+03
 0.67858448383E+02 0.47080302619E+02 0.37466476352E+02 0.34940356251E+02 0.35901781878E+02
 0.38534958160E+02 0.40799988807E+02 0.41000750418E+02 0.38370343463E+02 0.33314188822E+02
 0.27138744974E+02 0.21299001432E+02 0.16633911885E+02 0.13158970037E+02 0.10459189220E+02
 0.81819244668E+01 0.62188081608E+01 0.46297974967E+01 0.35290557624E+01 0.29821870986E+01
 0.29113501935E+01 0.31180553054E+01 0.34556708325E+01 0.39510285246E+01 0.47310337009E+01
 0.59425998754E+01 0.78921676801E+01 0.11249244619E+02 0.17109728071E+02 0.28679526575E+02
 0.50288439756E+02 0.83867797921E+02 0.12680227509E+03 0.17108785142E+03 0.20537264403E+03
 0.11609652690E+03 0.11244731202E+03 0.98811640887E+02 0.79883441665E+02 0.61137301491E+02
 0.47080302619E+02 0.40054908499E+02 0.39693494310E+02 0.44346439155E+02 0.52947049377E+02
 0.63033260144E+02 0.71046781042E+02 0.73677682552E+02 0.69390163982E+02 0.59231341017E+02
 0.46259556991E+02 0.33876142685E+02 0.24225613975E+02 0.17688148303E+02 0.13469283384E+02
 0.10514359178E+02 0.80971857481E+01 0.59746942160E+01 0.42594680953E+01 0.31429055964E+01
 0.26423528284E+01 0.25804092406E+01 0.27862194662E+01 0.32438335362E+01 0.40198603570E+01
 0.51530770891E+01 0.67340755042E+01 0.90757628476E+01 0.12718534532E+02 0.18487073554E+02
 0.28679526575E+02 0.45055901995E+02 0.66717176537E+02 0.89624726733E+02 0.10782288367E+03
 0.55577319299E+02 0.55358213726E+02 0.51225124181E+02 0.45240248018E+02 0.39894666783E+02
 0.37466476352E+02 0.39693494310E+02 0.48171806886E+02 0.64367473791E+02 0.86930561077E+02
 0.11102941642E+03 0.12981194298E+03 0.13713851401E+03 0.13020770651E+03 0.11083761392E+03
 0.84717439431E+02 0.58835160645E+02 0.38399833164E+02 0.25081843437E+02 0.17494652487E+02
 0.13128104715E+02 0.10063215158E+02 0.75027055285E+01 0.54101745284E+01 0.39986172800E+01
 0.34033584553E+01 0.35162926988E+01 0.40038857002E+01 0.45381643787E+01 0.50354856083E+01
 0.56417516687E+01 0.65321141890E+01 0.78371271837E+01 0.97748911942E+01 0.12718534532E+02
 0.17109728071E+02 0.23832919059E+02 0.32903050636E+02 0.42796117656E+02 0.51087566905E+02
 0.26695988522E+02 0.28334027095E+02 0.28971394248E+02 0.29558732791E+02 0.31127248514E+02
 0.34940356251E+02 0.44346439155E+02 0.64367473791E+02 0.97593920247E+02 0.14020044665E+03
 0.18224685749E+03 0.21225944545E+03 0.22366543944E+03 0.21483884572E+03 0.18694915991E+03
 0.14510293196E+03 0.99785762740E+02 0.61876678307E+02 0.36777576681E+02 0.23164786046E+02
 0.16234749053E+02 0.12054457343E+02 0.90144685362E+01 0.67160842040E+01 0.50185632039E+01
 0.40637636465E+01 0.40906711070E+01 0.48029715233E+01 0.54307480839E+01 0.56209162617E+01
 0.57748659274E+01 0.62980078014E+01 0.70426983692E+01 0.78371271837E+01 0.90757628476E+01
 0.11249244619E+02 0.14165839278E+02 0.17328424706E+02 0.20624554894E+02 0.23921919445E+02
 0.15684392626E+02 0.18140505810E+02 0.20262315334E+02 0.23135163133E+02 0.27779147344E+02
 0.35901781878E+02 0.52947049377E+02 0.86930561077E+02 0.14020044665E+03 0.20219687505E+03
 0.25272340358E+03 0.28014129313E+03 0.28768634253E+03 0.28123969711E+03 0.25814163813E+03
 0.21301685029E+03 0.15192527450E+03 0.93659744971E+02 0.52821850018E+02 0.30634358175E+02
 0.19944751119E+02 0.14064314999E+02 0.10355781723E+02 0.79126686049E+01 0.57837556003E+01
 0.38927397891E+01 0.31745495521E+01 0.37680221810E+01 0.44478928223E+01 0.44589938274E+01
 0.45437168174E+01 0.53828311163E+01 0.62980078014E+01 0.65321141890E+01 0.67340755042E+01
 0.78921676801E+01 0.95842592138E+01 0.10718959066E+02 0.11502787616E+02 0.13120107799E+02
 0.11196685628E+02 0.13885876480E+02 0.16062039573E+02 0.19827450056E+02 0.26673017858E+02
 0.38534958160E+02 0.63033260144E+02 0.11102941642E+03 0.18224685749E+03 0.25272340358E+03
 0.29164347625E+03 0.29497659337E+03 0.28718611733E+03 0.28875660787E+03 0.28989921147E+03
 0.26382182334E+03 0.20215252181E+03 0.12792211205E+03 0.70865918282E+02 0.39034265231E+02
 0.23962536813E+02 0.16017818287E+02 0.11482470435E+02 0.90082104047E+01 0.66402486317E+01
 0.38750951932E+01 0.24216503895E+01 0.29797226383E+01 0.37644326855E+01 0.34940521895E+01
 0.33734970723E+01 0.45437168174E+01 0.57748659274E+01 0.56417516687E+01 0.51530770891E+01
 0.59425998754E+01 0.72736340054E+01 0.74114617384E+01 0.69991117293E+01 0.82407296430E+01
 0.91077078573E+01 0.11812225664E+02 0.13715957072E+02 0.17902852289E+02 0.26240204733E+02
 0.40799988807E+02 0.71046781042E+02 0.12981194298E+03 0.21225944545E+03 0.28014129313E+03
 0.29497659337E+03 0.26376127974E+03 0.23556213646E+03 0.24736646243E+03 0.28168242822E+03
 0.28732912750E+03 0.23748632138E+03 0.15598875589E+03 0.86450038834E+02 0.46455516543E+02
 0.27530992222E+02 0.17716249728E+02 0.12420473762E+02 0.10052800342E+02 0.78366193963E+01
 0.48000111774E+01 0.31898032506E+01 0.40663665110E+01 0.50262584562E+01 0.42666756690E+01
 0.34940521895E+01 0.44589938274E+01 0.56209162617E+01 0.50354856083E+01 0.40198603570E+01
 0.47310337009E+01 0.60889790905E+01 0.57265959361E+01 0.46131484056E+01 0.57685791343E+01
 0.79684319664E+01 0.10568256898E+02 0.12207501226E+02 0.16473548205E+02 0.25380026939E+02
 0.41000750418E+02 0.73677682552E+02 0.13713851401E+03 0.22366543944E+03 0.28768634253E+03
 0.28718611733E+03 0.23556213646E+03 0.19553304073E+03 0.21335154978E+03 0.26751589491E+03
 0.29329500489E+03 0.25301313244E+03 0.17002262246E+03 0.94808496550E+02 0.50714493470E+02
 0.29746743672E+02 0.18903836944E+02 0.13170715714E+02 0.10855449386E+02 0.87756909979E+01
 0.56891187707E+01 0.40666448801E+01 0.51244105000E+01 0.61356657487E+01 0.50262584562E+01
 0.37644326855E+01 0.44478928223E+01 0.54307480839E+01 0.45381643787E+01 0.32438335362E+01
 0.39510285246E+01 0.53831458226E+01 0.48297907641E+01 0.34002711770E+01 0.45032354524E+01
 0.70726934734E+01 0.95107557541E+01 0.11066523651E+02 0.15128604430E+02 0.23585737171E+02
 0.38370343463E+02 0.69390163982E+02 0.13020770651E+03 0.21483884572E+03 0.28123969711E+03
 0.28875660787E+03 0.24736646243E+03 0.21335154978E+03 0.22901271520E+03 0.27498514671E+03
 0.29256972849E+03 0.24856823258E+03 0.16628691662E+03 0.93256206674E+02 0.50509808559E+02
 0.30047491295E+02 0.19391095041E+02 0.13672528244E+02 0.11179262240E+02 0.88515419051E+01
 0.55365492105E+01 0.36260713239E+01 0.43304895621E+01 0.51244105000E+01 0.40663665110E+01
 0.29797226383E+01 0.37680221810E+01 0.48029715233E+01 0.40038857002E+01 0.27862194662E+01
 0.34556708325E+01 0.48132995264E+01 0.42752605529E+01 0.28735485481E+01 0.38480782311E+01
 0.60998388387E+01 0.83342058462E+01 0.10000167920E+02 0.13679282249E+02 0.20892398877E+02
 0.33314188822E+02 0.59231341017E+02 0.11083761392E+03 0.18694915991E+03 0.25814163813E+03
 0.28989921147E+03 0.28168242822E+03 0.26751589491E+03 0.27498514671E+03 0.29154395514E+03
 0.28005883904E+03 0.22383520653E+03 0.14600029874E+03 0.82610490280E+02 0.46155368188E+02
 0.28524464359E+02 0.19162678844E+02 0.13883707730E+02 0.11128510321E+02 0.85133457154E+01
 0.52815169630E+01 0.33587348705E+01 0.36260713239E+01 0.40666448801E+01 0.31898032506E+01
 0.24216503895E+01 0.31745495521E+01 0.40906711070E+01 0.35162926988E+01 0.25804092406E+01
 0.31180553054E+01 0.42032868814E+01 0.37934252377E+01 0.26763200869E+01 0.34396837343E+01
 0.50169957455E+01 0.69879752743E+01 0.88470796402E+01 0.12105936750E+02 0.17758180302E+02
 0.27138744974E+02 0.46259556991E+02 0.84717439431E+02 0.14510293196E+03 0.21301685029E+03
 0.26382182334E+03 0.28732912750E+03 0.29329500489E+03 0.29256972849E+03 0.28005883904E+03
 0.24256104339E+03 0.18070839922E+03 0.11517806008E+03 0.66685398852E+02 0.39354130366E+02
 0.25861439296E+02 0.18430551940E+02 0.13903804991E+02 0.11130789795E+02 0.87427036666E+01
 0.64261088407E+01 0.52815169630E+01 0.55365492105E+01 0.56891187707E+01 0.48000111774E+01
 0.38750951932E+01 0.38927397891E+01 0.40637636465E+01 0.34033584553E+01 0.26423528284E+01
 0.29113501935E+01 0.35812820197E+01 0.33143207059E+01 0.25837469661E+01 0.30939083167E+01
 0.40054173516E+01 0.56457860479E+01 0.76210777335E+01 0.10512365766E+02 0.14760883084E+02
 0.21299001432E+02 0.33876142685E+02 0.58835160645E+02 0.99785762740E+02 0.15192527450E+03
 0.20215252181E+03 0.23748632138E+03 0.25301313244E+03 0.24856823258E+03 0.22383520653E+03
 0.18070839922E+03 0.12881363949E+03 0.82433194719E+02 0.50250579164E+02 0.32231964387E+02
 0.22977179341E+02 0.17586545591E+02 0.13998796212E+02 0.11581083559E+02 0.98547696122E+01
 0.87427036666E+01 0.85133457154E+01 0.88515419051E+01 0.87756909979E+01 0.78366193963E+01
 0.66402486317E+01 0.57837556003E+01 0.50185632039E+01 0.39986172800E+01 0.31429055964E+01
 0.29821870986E+01 0.31549197116E+01 0.29448856390E+01 0.25340298620E+01 0.28007745983E+01
 0.32123013498E+01 0.44798082106E+01 0.63768161534E+01 0.89448476297E+01 0.12198264449E+02
 0.16633911885E+02 0.24225613975E+02 0.38399833164E+02 0.61876678307E+02 0.93659744971E+02
 0.12792211205E+03 0.15598875589E+03 0.17002262246E+03 0.16628691662E+03 0.14600029874E+03
 0.11517806008E+03 0.82433194719E+02 0.55202847835E+02 0.36848170348E+02 0.26353604898E+02
 0.20613535867E+02 0.17033726460E+02 0.14468963631E+02 0.12668304701E+02 0.11581083559E+02
 0.11130789795E+02 0.11128510321E+02 0.11179262240E+02 0.10855449386E+02 0.10052800342E+02
 0.90082104047E+01 0.79126686049E+01 0.67160842040E+01 0.54101745284E+01 0.42594680953E+01
 0.35290557624E+01 0.31311647127E+01 0.27929944405E+01 0.25052695403E+01 0.25647904870E+01
 0.26153507085E+01 0.35069965364E+01 0.51152395421E+01 0.73363599233E+01 0.99811334672E+01
 0.13158970037E+02 0.17688148303E+02 0.25081843437E+02 0.36777576681E+02 0.52821850018E+02
 0.70865918282E+02 0.86450038834E+02 0.94808496550E+02 0.93256206674E+02 0.82610490280E+02
 0.66685398852E+02 0.50250579164E+02 0.36848170348E+02 0.27742390644E+02 0.22292161639E+02
 0.19093229708E+02 0.16991585305E+02 0.15470480271E+02 0.14468963631E+02 0.13998796212E+02
 0.13903804991E+02 0.13883707730E+02 0.13672528244E+02 0.13170715714E+02 0.12420473762E+02
 0.11482470435E+02 0.10355781723E+02 0.90144685362E+01 0.75027055285E+01 0.59746942160E+01
 0.46297974967E+01 0.36008890538E+01 0.29004725900E+01 0.24776960745E+01 0.23383620041E+01
 0.21846796354E+01 0.27283109375E+01 0.39158797291E+01 0.57092765454E+01 0.79304913548E+01
 0.10459189220E+02 0.13469283384E+02 0.17494652487E+02 0.23164786046E+02 0.30634358175E+02
 0.39034265231E+02 0.46455516543E+02 0.50714493470E+02 0.50509808559E+02 0.46155368188E+02
 0.39354130366E+02 0.32231964387E+02 0.26353604898E+02 0.22292161639E+02 0.19809855373E+02
 0.18343828653E+02 0.17450024098E+02 0.16991585305E+02 0.17033726460E+02 0.17586545591E+02
 0.18430551940E+02 0.19162678844E+02 0.19391095041E+02 0.18903836944E+02 0.17716249728E+02
 0.16017818287E+02 0.14064314999E+02 0.12054457343E+02 0.10063215158E+02 0.80971857481E+01
 0.62188081608E+01 0.45873425575E+01 0.33571132682E+01 0.25661996268E+01 0.21710500047E+01
 0.20155050443E+01 0.22581250486E+01 0.30106162782E+01 0.43002199925E+01 0.60722007479E+01
 0.81819244668E+01 0.10514359178E+02 0.13128104715E+02 0.16234749053E+02 0.19944751119E+02
 0.23962536813E+02 0.27530992222E+02 0.29746743672E+02 0.30047491295E+02 0.28524464359E+02
 0.25861439296E+02 0.22977179341E+02 0.20613535867E+02 0.19093229708E+02 0.18343828653E+02
 0.18133162004E+02 0.18343828653E+02 0.19093229708E+02 0.20613535867E+02 0.22977179341E+02
 0.25861439296E+02 0.28524464359E+02 0.30047491295E+02 0.29746743672E+02 0.27530992222E+02
 0.23962536813E+02 0.19944751119E+02 0.16234749053E+02 0.13128104715E+02 0.10514359178E+02
 0.81819244668E+01 0.60722007479E+01 0.43002199925E+01 0.30106162782E+01 0.22581250486E+01
 0.21846796354E+01 0.21710500047E+01 0.25661996268E+01 0.33571132682E+01 0.45873425575E+01
 0.62188081608E+01 0.80971857481E+01 0.10063215158E+02 0.12054457343E+02 0.14064314999E+02
 0.16017818287E+02 0.17716249728E+02 0.18903836944E+02 0.19391095041E+02 0.19162678844E+02
 0.18430551940E+02 0.17586545591E+02 0.17033726460E+02 0.16991585305E+02 0.17450024098E+02
 0.18343828653E+02 0.19809855373E+02 0.22292161639E+02 0.26353604898E+02 0.32231964387E+02
 0.39354130366E+02 0.46155368188E+02 0.50509808559E+02 0.50714493470E+02 0.46455516543E+02
 0.39034265231E+02 0.30634358175E+02 0.23164786046E+02 0.17494652487E+02 0.13469283384E+02
 0.10459189220E+02 0.79304913548E+01 0.57092765454E+01 0.39158797291E+01 0.27283109375E+01
 0.26153507085E+01 0.23383620041E+01 0.24776960745E+01 0.29004725900E+01 0.36008890538E+01
 0.46297974967E+01 0.59746942160E+01 0.75027055285E+01 0.90144685362E+01 0.10355781723E+02
 0.11482470435E+02 0.12420473762E+02 0.13170715714E+02 0.13672528244E+02 0.13883707730E+02
 0.13903804991E+02 0.13998796212E+02 0.14468963631E+02 0.15470480271E+02 0.16991585305E+02
 0.19093229708E+02 0.22292161639E+02 0.27742390644E+02 0.36848170348E+02 0.50250579164E+02
 0.66685398852E+02 0.82610490280E+02 0.93256206674E+02 0.94808496550E+02 0.86450038834E+02
 0.70865918282E+02 0.52821850018E+02 0.36777576681E+02 0.25081843437E+02 0.17688148303E+02
 0.13158970037E+02 0.99811334672E+01 0.73363599233E+01 0.51152395421E+01 0.35069965364E+01
 0.32123013498E+01 0.25647904870E+01 0.25052695403E+01 0.27929944405E+01 0.31311647127E+01
 0.35290557624E+01 0.42594680953E+01 0.54101745284E+01 0.67160842040E+01 0.79126686049E+01
 0.90082104047E+01 0.10052800342E+02 0.10855449386E+02 0.11179262240E+02 0.11128510321E+02
 0.11130789795E+02 0.11581083559E+02 0.12668304701E+02 0.14468963631E+02 0.17033726460E+02
 0.20613535867E+02 0.26353604898E+02 0.36848170348E+02 0.55202847835E+02 0.82433194719E+02
 0.11517806008E+03 0.14600029874E+03 0.16628691662E+03 0.17002262246E+03 0.15598875589E+03
 0.12792211205E+03 0.93659744971E+02 0.61876678307E+02 0.38399833164E+02 0.24225613975E+02
 0.16633911885E+02 0.12198264449E+02 0.89448476297E+01 0.63768161534E+01 0.44798082106E+01
 0.40054173516E+01 0.28007745983E+01 0.25340298620E+01 0.29448856390E+01 0.31549197116E+01
 0.29821870986E+01 0.31429055964E+01 0.39986172800E+01 0.50185632039E+01 0.57837556003E+01
 0.66402486317E+01 0.78366193963E+01 0.87756909979E+01 0.88515419051E+01 0.85133457154E+01
 0.87427036666E+01 0.98547696122E+01 0.11581083559E+02 0.13998796212E+02 0.17586545591E+02
 0.22977179341E+02 0.32231964387E+02 0.50250579164E+02 0.82433194719E+02 0.12881363949E+03
 0.18070839922E+03 0.22383520653E+03 0.24856823258E+03 0.25301313244E+03 0.23748632138E+03
 0.20215252181E+03 0.15192527450E+03 0.99785762740E+02 0.58835160645E+02 0.33876142685E+02
 0.21299001432E+02 0.14760883084E+02 0.10512365766E+02 0.76210777335E+01 0.56457860479E+01
 0.50169957455E+01 0.30939083167E+01 0.25837469661E+01 0.33143207059E+01 0.35812820197E+01
 0.29113501935E+01 0.26423528284E+01 0.34033584553E+01 0.40637636465E+01 0.38927397891E+01
 0.38750951932E+01 0.48000111774E+01 0.56891187707E+01 0.55365492105E+01 0.52815169630E+01
 0.64261088407E+01 0.87427036666E+01 0.11130789795E+02 0.13903804991E+02 0.18430551940E+02
 0.25861439296E+02 0.39354130366E+02 0.66685398852E+02 0.11517806008E+03 0.18070839922E+03
 0.24256104339E+03 0.28005883904E+03 0.29256972849E+03 0.29329500489E+03 0.28732912750E+03
 0.26382182334E+03 0.21301685029E+03 0.14510293196E+03 0.84717439431E+02 0.46259556991E+02
 0.27138744974E+02 0.17758180302E+02 0.12105936750E+02 0.88470796402E+01 0.69879752743E+01
 0.60998388387E+01 0.34396837343E+01 0.26763200869E+01 0.37934252377E+01 0.42032868814E+01
 0.31180553054E+01 0.25804092406E+01 0.35162926988E+01 0.40906711070E+01 0.31745495521E+01
 0.24216503895E+01 0.31898032506E+01 0.40666448801E+01 0.36260713239E+01 0.33587348705E+01
 0.52815169630E+01 0.85133457154E+01 0.11128510321E+02 0.13883707730E+02 0.19162678844E+02
 0.28524464359E+02 0.46155368188E+02 0.82610490280E+02 0.14600029874E+03 0.22383520653E+03
 0.28005883904E+03 0.29154395514E+03 0.27498514671E+03 0.26751589491E+03 0.28168242822E+03
 0.28989921147E+03 0.25814163813E+03 0.18694915991E+03 0.11083761392E+03 0.59231341017E+02
 0.33314188822E+02 0.20892398877E+02 0.13679282249E+02 0.10000167920E+02 0.83342058462E+01
 0.70726934734E+01 0.38480782311E+01 0.28735485481E+01 0.42752605529E+01 0.48132995264E+01
 0.34556708325E+01 0.27862194662E+01 0.40038857002E+01 0.48029715233E+01 0.37680221810E+01
 0.29797226383E+01 0.40663665110E+01 0.51244105000E+01 0.43304895621E+01 0.36260713239E+01
 0.55365492105E+01 0.88515419051E+01 0.11179262240E+02 0.13672528244E+02 0.19391095041E+02
 0.30047491295E+02 0.50509808559E+02 0.93256206674E+02 0.16628691662E+03 0.24856823258E+03
 0.29256972849E+03 0.27498514671E+03 0.22901271520E+03 0.21335154978E+03 0.24736646243E+03
 0.28875660787E+03 0.28123969711E+03 0.21483884572E+03 0.13020770651E+03 0.69390163982E+02
 0.38370343463E+02 0.23585737171E+02 0.15128604430E+02 0.11066523651E+02 0.95107557541E+01
 0.79684319664E+01 0.45032354524E+01 0.34002711770E+01 0.48297907641E+01 0.53831458226E+01
 0.39510285246E+01 0.32438335362E+01 0.45381643787E+01 0.54307480839E+01 0.44478928223E+01
 0.37644326855E+01 0.50262584562E+01 0.61356657487E+01 0.51244105000E+01 0.40666448801E+01
 0.56891187707E+01 0.87756909979E+01 0.10855449386E+02 0.13170715714E+02 0.18903836944E+02
 0.29746743672E+02 0.50714493470E+02 0.94808496550E+02 0.17002262246E+03 0.25301313244E+03
 0.29329500489E+03 0.26751589491E+03 0.21335154978E+03 0.19553304073E+03 0.23556213646E+03
 0.28718611733E+03 0.28768634253E+03 0.22366543944E+03 0.13713851401E+03 0.73677682552E+02
 0.41000750418E+02 0.25380026939E+02 0.16473548205E+02 0.12207501226E+02 0.10568256898E+02
 0.91077078573E+01 0.57685791343E+01 0.46131484056E+01 0.57265959361E+01 0.60889790905E+01
 0.47310337009E+01 0.40198603570E+01 0.50354856083E+01 0.56209162617E+01 0.44589938274E+01
 0.34940521895E+01 0.42666756690E+01 0.50262584562E+01 0.40663665110E+01 0.31898032506E+01
 0.48000111774E+01 0.78366193963E+01 0.10052800342E+02 0.12420473762E+02 0.17716249728E+02
 0.27530992222E+02 0.46455516543E+02 0.86450038834E+02 0.15598875589E+03 0.23748632138E+03
 0.28732912750E+03 0.28168242822E+03 0.24736646243E+03 0.23556213646E+03 0.26376127974E+03
 0.29497659337E+03 0.28014129313E+03 0.21225944545E+03 0.12981194298E+03 0.71046781042E+02
 0.40799988807E+02 0.26240204733E+02 0.17902852289E+02 0.13715957072E+02 0.11812225664E+02
 0.11196685628E+02 0.82407296430E+01 0.69991117293E+01 0.74114617384E+01 0.72736340054E+01
 0.59425998754E+01 0.51530770891E+01 0.56417516687E+01 0.57748659274E+01 0.45437168174E+01
 0.33734970723E+01 0.34940521895E+01 0.37644326855E+01 0.29797226383E+01 0.24216503895E+01
 0.38750951932E+01 0.66402486317E+01 0.90082104047E+01 0.11482470435E+02 0.16017818287E+02
 0.23962536813E+02 0.39034265231E+02 0.70865918282E+02 0.12792211205E+03 0.20215252181E+03
 0.26382182334E+03 0.28989921147E+03 0.28875660787E+03 0.28718611733E+03 0.29497659337E+03
 0.29164347625E+03 0.25272340358E+03 0.18224685749E+03 0.11102941642E+03 0.63033260144E+02
 0.38534958160E+02 0.26673017858E+02 0.19827450056E+02 0.16062039573E+02 0.13885876480E+02
 0.15684392626E+02 0.13120107799E+02 0.11502787616E+02 0.10718959066E+02 0.95842592138E+01
 0.78921676801E+01 0.67340755042E+01 0.65321141890E+01 0.62980078014E+01 0.53828311163E+01
 0.45437168174E+01 0.44589938274E+01 0.44478928223E+01 0.37680221810E+01 0.31745495521E+01
 0.38927397891E+01 0.57837556003E+01 0.79126686049E+01 0.10355781723E+02 0.14064314999E+02
 0.19944751119E+02 0.30634358175E+02 0.52821850018E+02 0.93659744971E+02 0.15192527450E+03
 0.21301685029E+03 0.25814163813E+03 0.28123969711E+03 0.28768634253E+03 0.28014129313E+03
 0.25272340358E+03 0.20219687505E+03 0.14020044665E+03 0.86930561077E+02 0.52947049377E+02
 0.35901781878E+02 0.27779147344E+02 0.23135163133E+02 0.20262315334E+02 0.18140505810E+02
 0.26695988522E+02 0.23921919445E+02 0.20624554894E+02 0.17328424706E+02 0.14165839278E+02
 0.11249244619E+02 0.90757628476E+01 0.78371271837E+01 0.70426983692E+01 0.62980078014E+01
 0.57748659274E+01 0.56209162617E+01 0.54307480839E+01 0.48029715233E+01 0.40906711070E+01
 0.40637636465E+01 0.50185632039E+01 0.67160842040E+01 0.90144685362E+01 0.12054457343E+02
 0.16234749053E+02 0.23164786046E+02 0.36777576681E+02 0.61876678307E+02 0.99785762740E+02
 0.14510293196E+03 0.18694915991E+03 0.21483884572E+03 0.22366543944E+03 0.21225944545E+03
 0.18224685749E+03 0.14020044665E+03 0.97593920247E+02 0.64367473791E+02 0.44346439155E+02
 0.34940356251E+02 0.31127248514E+02 0.29558732791E+02 0.28971394248E+02 0.28334027095E+02
 0.55577319299E+02 0.51087566905E+02 0.42796117656E+02 0.32903050636E+02 0.23832919059E+02
 0.17109728071E+02 0.12718534532E+02 0.97748911942E+01 0.78371271837E+01 0.65321141890E+01
 0.56417516687E+01 0.50354856083E+01 0.45381643787E+01 0.40038857002E+01 0.35162926988E+01
 0.34033584553E+01 0.39986172800E+01 0.54101745284E+01 0.75027055285E+01 0.10063215158E+02
 0.13128104715E+02 0.17494652487E+02 0.25081843437E+02 0.38399833164E+02 0.58835160645E+02
 0.84717439431E+02 0.11083761392E+03 0.13020770651E+03 0.13713851401E+03 0.12981194298E+03
 0.11102941642E+03 0.86930561077E+02 0.64367473791E+02 0.48171806886E+02 0.39693494310E+02
 0.37466476352E+02 0.39894666783E+02 0.45240248018E+02 0.51225124181E+02 0.55358213726E+02
 0.11609652690E+03 0.10782288367E+03 0.89624726733E+02 0.66717176537E+02 0.45055901995E+02
 0.28679526575E+02 0.18487073554E+02 0.12718534532E+02 0.90757628476E+01 0.67340755042E+01
 0.51530770891E+01 0.40198603570E+01 0.32438335362E+01 0.27862194662E+01 0.25804092406E+01
 0.26423528284E+01 0.31429055964E+01 0.42594680953E+01 0.59746942160E+01 0.80971857481E+01
 0.10514359178E+02 0.13469283384E+02 0.17688148303E+02 0.24225613975E+02 0.33876142685E+02
 0.46259556991E+02 0.59231341017E+02 0.69390163982E+02 0.73677682552E+02 0.71046781042E+02
 0.63033260144E+02 0.52947049377E+02 0.44346439155E+02 0.39693494310E+02 0.40054908499E+02
 0.47080302619E+02 0.61137301491E+02 0.79883441665E+02 0.98811640887E+02 0.11244731202E+03
 0.21969260235E+03 0.20537264403E+03 0.17108785142E+03 0.12680227509E+03 0.83867797921E+02
 0.50288439756E+02 0.28679526575E+02 0.17109728071E+02 0.11249244619E+02 0.78921676801E+01
 0.59425998754E+01 0.47310337009E+01 0.39510285246E+01 0.34556708325E+01 0.31180553054E+01
 0.29113501935E+01 0.29821870986E+01 0.35290557624E+01 0.46297974967E+01 0.62188081608E+01
 0.81819244668E+01 0.10459189220E+02 0.13158970037E+02 0.16633911885E+02 0.21299001432E+02
 0.27138744974E+02 0.33314188822E+02 0.38370343463E+02 0.41000750418E+02 0.40799988807E+02
 0.38534958160E+02 0.35901781878E+02 0.34940356251E+02 0.37466476352E+02 0.47080302619E+02
 0.67858448383E+02 0.10036754597E+03 0.14069959793E+03 0.18078915628E+03 0.21020696363E+03
 0.36961288114E+03 0.34712844215E+03 0.29027775873E+03 0.21573511793E+03 0.14242384915E+03
 0.83867797921E+02 0.45055901995E+02 0.23832919059E+02 0.14165839278E+02 0.95842592138E+01
 0.72736340054E+01 0.60889790905E+01 0.53831458226E+01 0.48132995264E+01 0.42032868814E+01
 0.35812820197E+01 0.31549197116E+01 0.31311647127E+01 0.36008890538E+01 0.45873425575E+01
 0.60722007479E+01 0.79304913548E+01 0.99811334672E+01 0.12198264449E+02 0.14760883084E+02
 0.17758180302E+02 0.20892398877E+02 0.23585737171E+02 0.25380026939E+02 0.26240204733E+02
 0.26673017858E+02 0.27779147344E+02 0.31127248514E+02 0.39894666783E+02 0.61137301491E+02
 0.10036754597E+03 0.15825147128E+03 0.22882112660E+03 0.29905270104E+03 0.35132168015E+03
 0.55345722752E+03 0.52128991072E+03 0.43709971969E+03 0.32586323156E+03 0.21573511793E+03
 0.12680227509E+03 0.66717176537E+02 0.32903050636E+02 0.17328424706E+02 0.10718959066E+02
 0.74114617384E+01 0.57265959361E+01 0.48297907641E+01 0.42752605529E+01 0.37934252377E+01
 0.33143207059E+01 0.29448856390E+01 0.27929944405E+01 0.29004725900E+01 0.33571132682E+01
 0.43002199925E+01 0.57092765454E+01 0.73363599233E+01 0.89448476297E+01 0.10512365766E+02
 0.12105936750E+02 0.13679282249E+02 0.15128604430E+02 0.16473548205E+02 0.17902852289E+02
 0.19827450056E+02 0.23135163133E+02 0.29558732791E+02 0.45240248018E+02 0.79883441665E+02
 0.14069959793E+03 0.22882112660E+03 0.33606207457E+03 0.44333869722E+03 0.52398269978E+03
 0.73879051149E+03 0.69682205797E+03 0.58508605939E+03 0.43709971969E+03 0.29027775873E+03
 0.17108785142E+03 0.89624726733E+02 0.42796117656E+02 0.20624554894E+02 0.11502787616E+02
 0.69991117293E+01 0.46131484056E+01 0.34002711770E+01 0.28735485481E+01 0.26763200869E+01
 0.25837469661E+01 0.25340298620E+01 0.25052695403E+01 0.24776960745E+01 0.25661996268E+01
 0.30106162782E+01 0.39158797291E+01 0.51152395421E+01 0.63768161534E+01 0.76210777335E+01
 0.88470796402E+01 0.10000167920E+02 0.11066523651E+02 0.12207501226E+02 0.13715957072E+02
 0.16062039573E+02 0.20262315334E+02 0.28971394248E+02 0.51225124181E+02 0.98811640887E+02
 0.18078915628E+03 0.29905270104E+03 0.44333869722E+03 0.58832116534E+03 0.69791476904E+03
 0.87903028434E+03 0.82943810956E+03 0.69682205797E+03 0.52128991072E+03 0.34712844215E+03
 0.20537264403E+03 0.10782288367E+03 0.51087566905E+02 0.23921919445E+02 0.13120107799E+02
 0.82407296430E+01 0.57685791343E+01 0.45032354524E+01 0.38480782311E+01 0.34396837343E+01
 0.30939083167E+01 0.28007745983E+01 0.25647904870E+01 0.23383620041E+01 0.21710500047E+01
 0.22581250486E+01 0.27283109375E+01 0.35069965364E+01 0.44798082106E+01 0.56457860479E+01
 0.69879752743E+01 0.83342058462E+01 0.95107557541E+01 0.10568256898E+02 0.11812225664E+02
 0.13885876480E+02 0.18140505810E+02 0.28334027095E+02 0.55358213726E+02 0.11244731202E+03
 0.21020696363E+03 0.35132168015E+03 0.52398269978E+03 0.69791476904E+03 0.82962054235E+03
 0.88679865787E+03 0.83694918406E+03 0.70380878235E+03 0.52765487212E+03 0.35265186467E+03
 0.20973651775E+03 0.11092414748E+03 0.53275507472E+02 0.25860634117E+02 0.15378617200E+02
 0.11005493489E+02 0.89465810915E+01 0.78057162376E+01 0.69038813361E+01 0.59387381379E+01
 0.48853607832E+01 0.39174968812E+01 0.31678022378E+01 0.26048544435E+01 0.21959833866E+01
 0.20344991519E+01 0.21959833866E+01 0.26048544435E+01 0.31678022378E+01 0.39174968812E+01