   6   6   0   0
  0.1039442E+02  0.4592200E-09  0.4592200E-09  0.2957400E-09  0.5000000E-15
  1.000000000000000E-004
  CAR 
 unknown system                          
     14.71746213    -55.25137243  301      5.80585964      1.00000000
    -55.251  0.0000E+00  0.0000E+00
    -55.018  0.0000E+00  0.0000E+00
    -54.785  0.0000E+00  0.0000E+00
    -54.552  0.0000E+00  0.0000E+00
    -54.318  0.0000E+00  0.0000E+00
    -54.085  0.0000E+00  0.0000E+00
    -53.852  0.0000E+00  0.0000E+00
    -53.619  0.0000E+00  0.0000E+00
    -53.386  0.0000E+00  0.0000E+00
    -53.152  0.5205E-13  0.1214E-13
    -52.919  0.5982E-08  0.1395E-08
    -52.686  0.4992E-04  0.1164E-04
    -52.453  0.3188E-01  0.7447E-02
    -52.219  0.1719E+01  0.4083E+00
    -51.986  0.9239E+01  0.2563E+01
    -51.753  0.5763E+01  0.3907E+01
    -51.520  0.3957E+00  0.3999E+01
    -51.286  0.2489E-02  0.4000E+01
    -51.053  0.1249E-05  0.4000E+01
    -50.820  0.4643E-10  0.4000E+01
    -50.587  0.0000E+00  0.4000E+01
    -50.354  0.0000E+00  0.4000E+01
    -50.120  0.0000E+00  0.4000E+01
    -49.887  0.0000E+00  0.4000E+01
    -49.654  0.0000E+00  0.4000E+01
    -49.421  0.0000E+00  0.4000E+01
    -49.187  0.0000E+00  0.4000E+01
    -48.954  0.0000E+00  0.4000E+01
    -48.721  0.0000E+00  0.4000E+01
    -48.488  0.0000E+00  0.4000E+01
    -48.254  0.0000E+00  0.4000E+01
    -48.021  0.0000E+00  0.4000E+01
    -47.788  0.0000E+00  0.4000E+01
    -47.555  0.0000E+00  0.4000E+01
    -47.322  0.0000E+00  0.4000E+01
    -47.088  0.0000E+00  0.4000E+01
    -46.855  0.0000E+00  0.4000E+01
    -46.622  0.0000E+00  0.4000E+01
    -46.389  0.0000E+00  0.4000E+01
    -46.155  0.0000E+00  0.4000E+01
    -45.922  0.0000E+00  0.4000E+01
    -45.689  0.0000E+00  0.4000E+01
    -45.456  0.0000E+00  0.4000E+01
    -45.223  0.0000E+00  0.4000E+01
    -44.989  0.0000E+00  0.4000E+01
    -44.756  0.0000E+00  0.4000E+01
    -44.523  0.0000E+00  0.4000E+01
    -44.290  0.0000E+00  0.4000E+01
    -44.056  0.0000E+00  0.4000E+01
    -43.823  0.0000E+00  0.4000E+01
    -43.590  0.0000E+00  0.4000E+01
    -43.357  0.0000E+00  0.4000E+01
    -43.123  0.0000E+00  0.4000E+01
    -42.890  0.0000E+00  0.4000E+01
    -42.657  0.0000E+00  0.4000E+01
    -42.424  0.0000E+00  0.4000E+01
    -42.191  0.0000E+00  0.4000E+01
    -41.957  0.0000E+00  0.4000E+01
    -41.724  0.0000E+00  0.4000E+01
    -41.491  0.0000E+00  0.4000E+01
    -41.258  0.0000E+00  0.4000E+01
    -41.024  0.0000E+00  0.4000E+01
    -40.791  0.0000E+00  0.4000E+01
    -40.558  0.0000E+00  0.4000E+01
    -40.325  0.0000E+00  0.4000E+01
    -40.091  0.0000E+00  0.4000E+01
    -39.858  0.0000E+00  0.4000E+01
    -39.625  0.0000E+00  0.4000E+01
    -39.392  0.0000E+00  0.4000E+01
    -39.159  0.0000E+00  0.4000E+01
    -38.925  0.0000E+00  0.4000E+01
    -38.692  0.0000E+00  0.4000E+01
    -38.459  0.0000E+00  0.4000E+01
    -38.226  0.0000E+00  0.4000E+01
    -37.992  0.0000E+00  0.4000E+01
    -37.759  0.0000E+00  0.4000E+01
    -37.526  0.0000E+00  0.4000E+01
    -37.293  0.0000E+00  0.4000E+01
    -37.059  0.0000E+00  0.4000E+01
    -36.826  0.0000E+00  0.4000E+01
    -36.593  0.0000E+00  0.4000E+01
    -36.360  0.0000E+00  0.4000E+01
    -36.127  0.0000E+00  0.4000E+01
    -35.893  0.0000E+00  0.4000E+01
    -35.660  0.0000E+00  0.4000E+01
    -35.427  0.0000E+00  0.4000E+01
    -35.194  0.0000E+00  0.4000E+01
    -34.960  0.0000E+00  0.4000E+01
    -34.727  0.0000E+00  0.4000E+01
    -34.494  0.0000E+00  0.4000E+01
    -34.261  0.0000E+00  0.4000E+01
    -34.027  0.0000E+00  0.4000E+01
    -33.794  0.0000E+00  0.4000E+01
    -33.561  0.0000E+00  0.4000E+01
    -33.328  0.0000E+00  0.4000E+01
    -33.095  0.0000E+00  0.4000E+01
    -32.861  0.0000E+00  0.4000E+01
    -32.628  0.0000E+00  0.4000E+01
    -32.395  0.0000E+00  0.4000E+01
    -32.162  0.0000E+00  0.4000E+01
    -31.928  0.0000E+00  0.4000E+01
    -31.695  0.0000E+00  0.4000E+01
    -31.462  0.0000E+00  0.4000E+01
    -31.229  0.0000E+00  0.4000E+01
    -30.996  0.0000E+00  0.4000E+01
    -30.762  0.0000E+00  0.4000E+01
    -30.529  0.0000E+00  0.4000E+01
    -30.296  0.0000E+00  0.4000E+01
    -30.063  0.0000E+00  0.4000E+01
    -29.829  0.5670E-11  0.4000E+01
    -29.596  0.2119E-06  0.4000E+01
    -29.363  0.5728E-03  0.4000E+01
    -29.130  0.1201E+00  0.4028E+01
    -28.896  0.2325E+01  0.4570E+01
    -28.663  0.7268E+01  0.6265E+01
    -28.430  0.1630E+02  0.1007E+02
    -28.197  0.2052E+02  0.1485E+02
    -27.964  0.4780E+01  0.1597E+02
    -27.730  0.1391E+00  0.1600E+02
    -27.497  0.4008E-03  0.1600E+02
    -27.264  0.9844E-07  0.1600E+02
    -27.031  0.1872E-11  0.1600E+02
    -26.797  0.0000E+00  0.1600E+02
    -26.564  0.0000E+00  0.1600E+02
    -26.331  0.0000E+00  0.1600E+02
    -26.098  0.0000E+00  0.1600E+02
    -25.864  0.0000E+00  0.1600E+02
    -25.631  0.0000E+00  0.1600E+02
    -25.398  0.0000E+00  0.1600E+02
    -25.165  0.0000E+00  0.1600E+02
    -24.932  0.0000E+00  0.1600E+02
    -24.698  0.0000E+00  0.1600E+02
    -24.465  0.0000E+00  0.1600E+02
    -24.232  0.0000E+00  0.1600E+02
    -23.999  0.0000E+00  0.1600E+02
    -23.765  0.0000E+00  0.1600E+02
    -23.532  0.0000E+00  0.1600E+02
    -23.299  0.0000E+00  0.1600E+02
    -23.066  0.0000E+00  0.1600E+02
    -22.832  0.0000E+00  0.1600E+02
    -22.599  0.0000E+00  0.1600E+02
    -22.366  0.0000E+00  0.1600E+02
    -22.133  0.0000E+00  0.1600E+02
    -21.900  0.0000E+00  0.1600E+02
    -21.666  0.0000E+00  0.1600E+02
    -21.433  0.0000E+00  0.1600E+02
    -21.200  0.0000E+00  0.1600E+02
    -20.967  0.0000E+00  0.1600E+02
    -20.733  0.0000E+00  0.1600E+02
    -20.500  0.0000E+00  0.1600E+02
    -20.267  0.0000E+00  0.1600E+02
    -20.034  0.0000E+00  0.1600E+02
    -19.800  0.0000E+00  0.1600E+02
    -19.567  0.0000E+00  0.1600E+02
    -19.334  0.0000E+00  0.1600E+02
    -19.101  0.0000E+00  0.1600E+02
    -18.868  0.0000E+00  0.1600E+02
    -18.634  0.0000E+00  0.1600E+02
    -18.401  0.0000E+00  0.1600E+02
    -18.168  0.0000E+00  0.1600E+02
    -17.935  0.0000E+00  0.1600E+02
    -17.701  0.1098E-11  0.1600E+02
    -17.468  0.3633E-07  0.1600E+02
    -17.235  0.8697E-04  0.1600E+02
    -17.002  0.1642E-01  0.1600E+02
    -16.769  0.2968E+00  0.1607E+02
    -16.535  0.7887E+00  0.1626E+02
    -16.302  0.1223E+01  0.1654E+02
    -16.069  0.3042E+01  0.1725E+02
    -15.836  0.5040E+01  0.1843E+02
    -15.602  0.5606E+01  0.1973E+02
    -15.369  0.6526E+01  0.2126E+02
    -15.136  0.7867E+01  0.2309E+02
    -14.903  0.3580E+01  0.2393E+02
    -14.669  0.3114E+00  0.2400E+02
    -14.436  0.3257E-02  0.2400E+02
    -14.203  0.3157E-05  0.2400E+02
    -13.970  0.2464E-09  0.2400E+02
    -13.737  0.1349E-14  0.2400E+02
    -13.503  0.0000E+00  0.2400E+02
    -13.270  0.0000E+00  0.2400E+02
    -13.037  0.0000E+00  0.2400E+02
    -12.804  0.0000E+00  0.2400E+02
    -12.570  0.0000E+00  0.2400E+02
    -12.337  0.0000E+00  0.2400E+02
    -12.104  0.0000E+00  0.2400E+02
    -11.871  0.0000E+00  0.2400E+02
    -11.637  0.0000E+00  0.2400E+02
    -11.404  0.0000E+00  0.2400E+02
    -11.171  0.0000E+00  0.2400E+02
    -10.938  0.0000E+00  0.2400E+02
    -10.705  0.0000E+00  0.2400E+02
    -10.471  0.0000E+00  0.2400E+02
    -10.238  0.0000E+00  0.2400E+02
    -10.005  0.0000E+00  0.2400E+02
     -9.772  0.0000E+00  0.2400E+02
     -9.538  0.0000E+00  0.2400E+02
     -9.305  0.0000E+00  0.2400E+02
     -9.072  0.0000E+00  0.2400E+02
     -8.839  0.0000E+00  0.2400E+02
     -8.605  0.0000E+00  0.2400E+02
     -8.372  0.0000E+00  0.2400E+02
     -8.139  0.0000E+00  0.2400E+02
     -7.906  0.0000E+00  0.2400E+02
     -7.673  0.0000E+00  0.2400E+02
     -7.439  0.0000E+00  0.2400E+02
     -7.206  0.0000E+00  0.2400E+02
     -6.973  0.0000E+00  0.2400E+02
     -6.740  0.0000E+00  0.2400E+02
     -6.506  0.0000E+00  0.2400E+02
     -6.273  0.0000E+00  0.2400E+02
     -6.040  0.0000E+00  0.2400E+02
     -5.807  0.0000E+00  0.2400E+02
     -5.573  0.0000E+00  0.2400E+02
     -5.340  0.0000E+00  0.2400E+02
     -5.107  0.0000E+00  0.2400E+02
     -4.874  0.0000E+00  0.2400E+02
     -4.641  0.0000E+00  0.2400E+02
     -4.407  0.0000E+00  0.2400E+02
     -4.174  0.0000E+00  0.2400E+02
     -3.941  0.0000E+00  0.2400E+02
     -3.708  0.0000E+00  0.2400E+02
     -3.474  0.0000E+00  0.2400E+02
     -3.241  0.0000E+00  0.2400E+02
     -3.008  0.0000E+00  0.2400E+02
     -2.775  0.0000E+00  0.2400E+02
     -2.542  0.0000E+00  0.2400E+02
     -2.308  0.1639E-11  0.2400E+02
     -2.075  0.4913E-07  0.2400E+02
     -1.842  0.1057E-03  0.2400E+02
     -1.609  0.1766E-01  0.2400E+02
     -1.375  0.2790E+00  0.2407E+02
     -1.142  0.6706E+00  0.2423E+02
     -0.909  0.1176E+01  0.2450E+02
     -0.676  0.3363E+01  0.2528E+02
     -0.442  0.5715E+01  0.2662E+02
     -0.209  0.4480E+01  0.2766E+02
      0.024  0.3138E+01  0.2839E+02
      0.257  0.2743E+01  0.2903E+02
      0.490  0.2653E+01  0.2965E+02
      0.724  0.5220E+01  0.3087E+02
      0.957  0.7158E+01  0.3254E+02
      1.190  0.5461E+01  0.3381E+02
      1.423  0.5218E+01  0.3503E+02
      1.657  0.3724E+01  0.3590E+02
      1.890  0.5042E+01  0.3707E+02
      2.123  0.4774E+01  0.3819E+02
      2.356  0.3057E+01  0.3890E+02
      2.590  0.3730E+01  0.3977E+02
      2.823  0.4782E+01  0.4089E+02
      3.056  0.3033E+01  0.4159E+02
      3.289  0.3510E+01  0.4241E+02
      3.522  0.4177E+01  0.4339E+02
      3.756  0.2540E+01  0.4398E+02
      3.989  0.3762E+01  0.4486E+02
      4.222  0.5236E+01  0.4608E+02
      4.455  0.3572E+01  0.4691E+02
      4.689  0.1072E+01  0.4716E+02
      4.922  0.1185E+01  0.4744E+02
      5.155  0.1571E+01  0.4780E+02
      5.388  0.7328E+00  0.4797E+02
      5.622  0.1101E+00  0.4800E+02
      5.855  0.2318E-02  0.4800E+02
      6.088  0.2805E-01  0.4801E+02
      6.321  0.8246E+00  0.4820E+02
      6.554  0.2907E+01  0.4888E+02
      6.788  0.2862E+01  0.4954E+02
      7.021  0.4711E+01  0.5064E+02
      7.254  0.6293E+01  0.5211E+02
      7.487  0.4544E+01  0.5317E+02
      7.721  0.6259E+01  0.5463E+02
      7.954  0.7335E+01  0.5634E+02
      8.187  0.3286E+01  0.5711E+02
      8.420  0.3258E+01  0.5787E+02
      8.653  0.3995E+01  0.5880E+02
      8.887  0.3612E+01  0.5964E+02
      9.120  0.1842E+01  0.6007E+02
      9.353  0.2470E+01  0.6065E+02
      9.586  0.1898E+01  0.6109E+02
      9.820  0.1003E+01  0.6132E+02
     10.053  0.1660E+01  0.6171E+02
     10.286  0.1912E+01  0.6216E+02
     10.519  0.2151E+01  0.6266E+02
     10.753  0.2083E+01  0.6314E+02
     10.986  0.1781E+01  0.6356E+02
     11.219  0.1088E+01  0.6381E+02
     11.452  0.4556E+00  0.6392E+02
     11.685  0.2994E+00  0.6399E+02
     11.919  0.4488E-01  0.6400E+02
     12.152  0.8933E-03  0.6400E+02
     12.385  0.1669E-05  0.6400E+02
     12.618  0.2405E-09  0.6400E+02
     12.852  0.2459E-14  0.6400E+02
     13.085  0.0000E+00  0.6400E+02
     13.318  0.0000E+00  0.6400E+02
     13.551  0.0000E+00  0.6400E+02
     13.785  0.0000E+00  0.6400E+02
     14.018  0.0000E+00  0.6400E+02
     14.251  0.0000E+00  0.6400E+02
     14.484  0.0000E+00  0.6400E+02
     14.717  0.0000E+00  0.6400E+02
