    6    6    1    1
  0.1039442E+02  0.4592200E-09  0.4592200E-09  0.2957400E-09  0.5000000E-15
  1.000000000000000E-004
  CAR 
 unknown system                          
   48   36   32
 
  0.0000000E+00  0.0000000E+00  0.0000000E+00  0.2777778E-01
   1      -52.070971
   2      -52.049865
   3      -28.579865
   4      -28.579865
   5      -28.348817
   6      -28.348817
   7      -28.309325
   8      -28.270489
   9      -16.715038
  10      -15.859592
  11      -15.094831
  12      -15.094831
  13       -1.329963
  14       -0.748692
  15       -0.486224
  16        0.842445
  17        0.842445
  18        1.648234
  19        1.648234
  20        2.340315
  21        4.878923
  22        4.957155
  23        4.957155
  24        5.232878
  25        6.417651
  26        6.753517
  27        7.009531
  28        7.033289
  29        7.033289
  30        8.674046
  31        9.397744
  32       10.977584
 
  0.0000000E+00  0.1666667E+00  0.0000000E+00  0.2777778E-01
   1      -52.069620
   2      -52.051003
   3      -28.566820
   4      -28.565574
   5      -28.364529
   6      -28.363177
   7      -28.306187
   8      -28.272632
   9      -16.630259
  10      -15.845695
  11      -15.183462
  12      -15.131619
  13       -1.164413
  14       -0.601216
  15       -0.422934
  16        0.874840
  17        0.886246
  18        1.568595
  19        1.708845
  20        2.470662
  21        3.990719
  22        4.467991
  23        4.560211
  24        5.091913
  25        6.595625
  26        7.058004
  27        7.154100
  28        7.226270
  29        7.277152
  30        8.931874
  31        9.210728
  32       11.537061
 
  0.0000000E+00  0.3333333E+00  0.0000000E+00  0.2777778E-01
   1      -52.065624
   2      -52.054902
   3      -28.532743
   4      -28.529705
   5      -28.403295
   6      -28.399650
   7      -28.299127
   8      -28.279699
   9      -16.397122
  10      -15.868843
  11      -15.337538
  12      -15.232654
  13       -0.829039
  14       -0.436152
  15        0.186594
  16        0.851203
  17        0.930011
  18        1.313655
  19        1.793189
  20        2.681671
  21        2.724091
  22        3.920555
  23        4.005507
  24        4.604907
  25        6.913582
  26        7.253479
  27        7.436885
  28        7.630312
  29        7.701600
  30        8.765522
  31        9.791893
  32       11.419748
 
  0.0000000E+00  0.5000000E+00  0.0000000E+00  0.2777778E-01
   1      -52.060178
   2      -52.060178
   3      -28.501766
   4      -28.501766
   5      -28.432391
   6      -28.432391
   7      -28.289648
   8      -28.289648
   9      -16.089451
  10      -16.089451
  11      -15.338438
  12      -15.338438
  13       -0.476043
  14       -0.476043
  15        0.920066
  16        0.920066
  17        1.176787
  18        1.176787
  19        1.497866
  20        1.497866
  21        3.153870
  22        3.153870
  23        4.212931
  24        4.212931
  25        7.170406
  26        7.170406
  27        7.670673
  28        7.670673
  29        8.243100
  30        8.243100
  31       10.917191
  32       10.917301
 
  0.0000000E+00  0.5000000E+00  0.0000000E+00  0.2777778E-01
   1      -52.060178
   2      -52.060178
   3      -28.501766
   4      -28.501766
   5      -28.432391
   6      -28.432391
   7      -28.289648
   8      -28.289648
   9      -16.089451
  10      -16.089451
  11      -15.338438
  12      -15.338438
  13       -0.476043
  14       -0.476043
  15        0.920066
  16        0.920066
  17        1.176787
  18        1.176787
  19        1.497866
  20        1.497866
  21        3.153870
  22        3.153870
  23        4.212931
  24        4.212931
  25        7.170406
  26        7.170406
  27        7.670673
  28        7.670673
  29        8.243100
  30        8.243100
  31       10.917065
  32       10.917075
 
  0.1666667E+00  0.5000000E+00  0.0000000E+00  0.2777778E-01
   1      -52.060201
   2      -52.060201
   3      -28.536960
   4      -28.536960
   5      -28.396755
   6      -28.396755
   7      -28.289011
   8      -28.289011
   9      -16.122067
  10      -16.122067
  11      -15.294523
  12      -15.294523
  13       -0.594415
  14       -0.594415
  15        0.848874
  16        0.848874
  17        1.048418
  18        1.048418
  19        2.162496
  20        2.162496
  21        3.438230
  22        3.438230
  23        4.104839
  24        4.104839
  25        7.054928
  26        7.054928
  27        7.541057
  28        7.541057
  29        8.365236
  30        8.365236
  31       10.746448
  32       10.746451
 
  0.3333333E+00  0.5000000E+00  0.0000000E+00  0.2777778E-01
   1      -52.060176
   2      -52.060176
   3      -28.578112
   4      -28.578112
   5      -28.355072
   6      -28.355072
   7      -28.288885
   8      -28.288885
   9      -16.188473
  10      -16.188473
  11      -15.216203
  12      -15.216203
  13       -0.839137
  14       -0.839137
  15        0.704634
  16        0.704634
  17        1.307080
  18        1.307080
  19        2.673776
  20        2.673776
  21        3.682850
  22        3.682850
  23        3.836695
  24        3.836695
  25        6.702924
  26        6.702924
  27        7.221655
  28        7.221655
  29        8.608973
  30        8.608973
  31       10.376690
  32       10.376690
 
  0.5000000E+00  0.5000000E+00  0.0000000E+00  0.2777778E-01
   1      -52.059995
   2      -52.059995
   3      -28.593048
   4      -28.593048
   5      -28.338723
   6      -28.338723
   7      -28.288556
   8      -28.288556
   9      -16.209493
  10      -16.209493
  11      -15.168557
  12      -15.168557
  13       -0.804422
  14       -0.804422
  15        0.783692
  16        0.783692
  17        1.782146
  18        1.782146
  19        2.734123
  20        2.734123
  21        3.920367
  22        3.920367
  23        4.254016
  24        4.254016
  25        6.458781
  26        6.458781
  27        7.057824
  28        7.057824
  29        8.832653
  30        8.832653
  31       10.277616
  32       10.277617
 
  0.5000000E+00  0.5000000E+00  0.0000000E+00  0.2777778E-01
   1      -52.059995
   2      -52.059995
   3      -28.593048
   4      -28.593048
   5      -28.338723
   6      -28.338723
   7      -28.288556
   8      -28.288556
   9      -16.209493
  10      -16.209493
  11      -15.168557
  12      -15.168557
  13       -0.804422
  14       -0.804422
  15        0.783692
  16        0.783692
  17        1.782146
  18        1.782146
  19        2.734123
  20        2.734123
  21        3.920367
  22        3.920367
  23        4.254016
  24        4.254016
  25        6.458781
  26        6.458781
  27        7.057824
  28        7.057824
  29        8.832653
  30        8.832653
  31       10.277616
  32       10.277617
 
  0.3333333E+00  0.3333333E+00  0.0000000E+00  0.2777778E-01
   1      -52.062788
   2      -52.057501
   3      -28.590136
   4      -28.539682
   5      -28.393926
   6      -28.341370
   7      -28.293484
   8      -28.284337
   9      -16.312232
  10      -16.028243
  11      -15.313835
  12      -15.160770
  13       -0.977459
  14       -0.546434
  15        0.714962
  16        0.735679
  17        0.804231
  18        1.611905
  19        2.201521
  20        3.060707
  21        3.325373
  22        3.417604
  23        3.903815
  24        4.403300
  25        6.475060
  26        7.051057
  27        7.072730
  28        7.545360
  29        8.315057
  30        8.784046
  31        9.862933
  32       11.048514
 
  0.1666667E+00  0.1666667E+00  0.0000000E+00  0.2777778E-01
   1      -52.068355
   2      -52.052357
   3      -28.583434
   4      -28.528668
   5      -28.404099
   6      -28.346717
   7      -28.304028
   8      -28.274729
   9      -16.563372
  10      -15.845947
  11      -15.283008
  12      -15.119872
  13       -1.146089
  14       -0.480040
  15       -0.287724
  16        0.829303
  17        0.841227
  18        1.358780
  19        1.707189
  20        2.515232
  21        3.450276
  22        4.237845
  23        4.353305
  24        5.135580
  25        6.495406
  26        7.038766
  27        7.176932
  28        7.468024
  29        7.558668
  30        9.061396
  31        9.079452
  32       11.378696
 
  0.0000000E+00  0.0000000E+00  0.0000000E+00  0.2777778E-01
   1      -52.070971
   2      -52.049865
   3      -28.579865
   4      -28.579865
   5      -28.348817
   6      -28.348817
   7      -28.309325
   8      -28.270489
   9      -16.715038
  10      -15.859592
  11      -15.094831
  12      -15.094831
  13       -1.329963
  14       -0.748692
  15       -0.486224
  16        0.842445
  17        0.842445
  18        1.648234
  19        1.648234
  20        2.340315
  21        4.878923
  22        4.957155
  23        4.957155
  24        5.232878
  25        6.417651
  26        6.753517
  27        7.009531
  28        7.033289
  29        7.033289
  30        8.674046
  31        9.397744
  32       10.977584
 
  0.0000000E+00  0.0000000E+00  0.0000000E+00  0.2777778E-01
   1      -52.070971
   2      -52.049865
   3      -28.579865
   4      -28.579865
   5      -28.348817
   6      -28.348817
   7      -28.309325
   8      -28.270489
   9      -16.715038
  10      -15.859592
  11      -15.094831
  12      -15.094831
  13       -1.329963
  14       -0.748692
  15       -0.486224
  16        0.842445
  17        0.842445
  18        1.648234
  19        1.648234
  20        2.340315
  21        4.878923
  22        4.957155
  23        4.957155
  24        5.232878
  25        6.417651
  26        6.753517
  27        7.009531
  28        7.033289
  29        7.033289
  30        8.674046
  31        9.397744
  32       10.977584
 
  0.0000000E+00  0.0000000E+00  0.1666667E+00  0.2777778E-01
   1      -52.058372
   2      -52.039731
   3      -28.538872
   4      -28.538872
   5      -28.441782
   6      -28.412277
   7      -28.343465
   8      -28.343465
   9      -16.459356
  10      -15.694245
  11      -15.227723
  12      -15.227723
  13       -0.887052
  14       -0.383463
  15       -0.220413
  16        0.541553
  17        0.541553
  18        1.959113
  19        2.399051
  20        2.399051
  21        3.181552
  22        4.130323
  23        4.130323
  24        4.962333
  25        6.794936
  26        6.948036
  27        7.099760
  28        7.549533
  29        7.549533
  30        9.141375
  31        9.193644
  32       11.117494
 
  0.0000000E+00  0.0000000E+00  0.3333333E+00  0.2777778E-01
   1      -52.032133
   2      -52.021045
   3      -28.699147
   4      -28.684781
   5      -28.450438
   6      -28.450438
   7      -28.337407
   8      -28.337407
   9      -15.897912
  10      -15.486452
  11      -15.486452
  12      -15.429244
  13       -0.000327
  14        0.272142
  15        0.588076
  16        0.588076
  17        0.750749
  18        1.003988
  19        1.520637
  20        2.680759
  21        2.680759
  22        3.215798
  23        3.215798
  24        4.019756
  25        6.970146
  26        7.257961
  27        7.805727
  28        8.243435
  29        8.243435
  30        8.507123
  31        9.879282
  32       10.657965
 
  0.0000000E+00  0.0000000E+00  0.5000000E+00  0.2777778E-01
   1      -52.015366
   2      -52.015366
   3      -28.820099
   4      -28.820099
   5      -28.394545
   6      -28.394545
   7      -28.346839
   8      -28.346839
   9      -15.631125
  10      -15.631125
  11      -15.459496
  12      -15.459496
  13        0.101982
  14        0.101982
  15        0.700786
  16        0.700786
  17        0.859697
  18        0.859697
  19        1.860655
  20        1.860655
  21        2.039241
  22        2.039241
  23        3.431069
  24        3.431069
  25        7.607066
  26        7.607066
  27        7.786684
  28        7.786684
  29        8.480873
  30        8.480873
  31       10.025476
  32       10.025477
 
  0.0000000E+00  0.0000000E+00  0.5000000E+00  0.2777778E-01
   1      -52.015366
   2      -52.015366
   3      -28.820099
   4      -28.820099
   5      -28.394545
   6      -28.394545
   7      -28.346839
   8      -28.346839
   9      -15.631125
  10      -15.631125
  11      -15.459496
  12      -15.459496
  13        0.101982
  14        0.101982
  15        0.700786
  16        0.700786
  17        0.859697
  18        0.859697
  19        1.860655
  20        1.860655
  21        2.039241
  22        2.039241
  23        3.431069
  24        3.431069
  25        7.607067
  26        7.607067
  27        7.786685
  28        7.786685
  29        8.480873
  30        8.480873
  31       10.025475
  32       10.025481
 
  0.0000000E+00  0.1666667E+00  0.5000000E+00  0.2777778E-01
   1      -52.015340
   2      -52.015340
   3      -28.825334
   4      -28.825334
   5      -28.388308
   6      -28.388308
   7      -28.346518
   8      -28.346518
   9      -15.745884
  10      -15.745884
  11      -15.338399
  12      -15.338399
  13       -0.141853
  14       -0.141853
  15        0.524077
  16        0.524077
  17        1.178309
  18        1.178309
  19        1.916043
  20        1.916043
  21        2.612898
  22        2.612898
  23        3.234638
  24        3.234638
  25        7.375217
  26        7.375217
  27        7.787586
  28        7.787586
  29        8.566200
  30        8.566200
  31        9.699674
  32        9.699674
 
  0.0000000E+00  0.3333333E+00  0.5000000E+00  0.2777778E-01
   1      -52.015353
   2      -52.015353
   3      -28.836579
   4      -28.836579
   5      -28.377954
   6      -28.377954
   7      -28.346173
   8      -28.346173
   9      -15.873467
  10      -15.873467
  11      -15.203773
  12      -15.203773
  13       -0.536016
  14       -0.536016
  15        0.584625
  16        0.584625
  17        1.237503
  18        1.237503
  19        2.087293
  20        2.087293
  21        2.867986
  22        2.867986
  23        3.372618
  24        3.372618
  25        6.777269
  26        6.777269
  27        7.800974
  28        7.800974
  29        8.665322
  30        8.665322
  31        9.375194
  32        9.375194
 
  0.0000000E+00  0.5000000E+00  0.5000000E+00  0.2777778E-01
   1      -52.015242
   2      -52.015242
   3      -28.841315
   4      -28.841315
   5      -28.372160
   6      -28.372160
   7      -28.345337
   8      -28.345337
   9      -15.914559
  10      -15.914559
  11      -15.149955
  12      -15.149955
  13       -0.618178
  14       -0.618178
  15        0.711967
  16        0.711967
  17        1.260685
  18        1.260685
  19        2.436032
  20        2.436032
  21        2.692165
  22        2.692165
  23        3.999880
  24        3.999880
  25        6.420654
  26        6.420654
  27        7.810605
  28        7.810605
  29        8.732483
  30        8.732484
  31        9.283777
  32        9.283777
 
  0.0000000E+00  0.5000000E+00  0.5000000E+00  0.2777778E-01
   1      -52.015242
   2      -52.015242
   3      -28.841315
   4      -28.841315
   5      -28.372160
   6      -28.372160
   7      -28.345337
   8      -28.345337
   9      -15.914559
  10      -15.914559
  11      -15.149955
  12      -15.149955
  13       -0.618178
  14       -0.618178
  15        0.711967
  16        0.711967
  17        1.260685
  18        1.260685
  19        2.436032
  20        2.436032
  21        2.692165
  22        2.692165
  23        3.999880
  24        3.999880
  25        6.420654
  26        6.420654
  27        7.810605
  28        7.810605
  29        8.732484
  30        8.732484
  31        9.283777
  32        9.283777
 
  0.1666667E+00  0.5000000E+00  0.5000000E+00  0.2777778E-01
   1      -52.015215
   2      -52.015215
   3      -28.836002
   4      -28.836002
   5      -28.378212
   6      -28.378212
   7      -28.346435
   8      -28.346435
   9      -15.877090
  10      -15.877090
  11      -15.195071
  12      -15.195071
  13       -0.628576
  14       -0.628576
  15        0.479488
  16        0.479488
  17        1.183675
  18        1.183675
  19        2.103838
  20        2.103838
  21        2.973435
  22        2.973435
  23        3.973493
  24        3.973493
  25        6.555031
  26        6.555031
  27        7.814893
  28        7.814893
  29        8.591992
  30        8.591992
  31        9.432398
  32        9.432398
 
  0.3333333E+00  0.5000000E+00  0.5000000E+00  0.2777778E-01
   1      -52.015137
   2      -52.015137
   3      -28.824604
   4      -28.824604
   5      -28.390527
   6      -28.390527
   7      -28.347396
   8      -28.347396
   9      -15.769096
  10      -15.769096
  11      -15.296911
  12      -15.296911
  13       -0.475856
  14       -0.475856
  15        0.177178
  16        0.177178
  17        1.271274
  18        1.271274
  19        2.061175
  20        2.061175
  21        3.346406
  22        3.346406
  23        4.306187
  24        4.306187
  25        6.917166
  26        6.917166
  27        7.833703
  28        7.833703
  29        8.242431
  30        8.242431
  31        9.920439
  32        9.920439
 
  0.5000000E+00  0.5000000E+00  0.5000000E+00  0.2777778E-01
   1      -52.015262
   2      -52.015262
   3      -28.818721
   4      -28.818721
   5      -28.397407
   6      -28.397407
   7      -28.348025
   8      -28.348025
   9      -15.692748
  10      -15.692748
  11      -15.383787
  12      -15.383787
  13       -0.474436
  14       -0.474436
  15       -0.192454
  16       -0.192454
  17        1.205744
  18        1.205744
  19        1.864877
  20        1.864877
  21        3.498176
  22        3.498176
  23        4.202578
  24        4.202578
  25        7.231393
  26        7.231393
  27        7.826233
  28        7.826233
  29        7.871628
  30        7.871628
  31       10.516344
  32       10.544954
 
  0.5000000E+00  0.5000000E+00  0.5000000E+00  0.2777778E-01
   1      -52.015262
   2      -52.015262
   3      -28.818721
   4      -28.818721
   5      -28.397407
   6      -28.397407
   7      -28.348025
   8      -28.348025
   9      -15.692748
  10      -15.692748
  11      -15.383787
  12      -15.383787
  13       -0.474436
  14       -0.474436
  15       -0.192454
  16       -0.192454
  17        1.205744
  18        1.205744
  19        1.864878
  20        1.864878
  21        3.498176
  22        3.498176
  23        4.202578
  24        4.202578
  25        7.231393
  26        7.231393
  27        7.826233
  28        7.826233
  29        7.871628
  30        7.871628
  31       10.516245
  32       10.516641
 
  0.3333333E+00  0.3333333E+00  0.5000000E+00  0.2777778E-01
   1      -52.015151
   2      -52.015074
   3      -28.834617
   4      -28.819713
   5      -28.396590
   6      -28.378452
   7      -28.347372
   8      -28.346544
   9      -15.877455
  10      -15.675341
  11      -15.395020
  12      -15.185394
  13       -0.646364
  14       -0.190487
  15        0.100892
  16        0.409708
  17        0.926494
  18        1.683823
  19        1.993284
  20        2.164938
  21        3.100727
  22        3.460670
  23        3.882370
  24        4.185196
  25        6.626373
  26        7.321904
  27        7.820165
  28        7.824447
  29        7.951311
  30        8.635443
  31        9.398769
  32       10.604984
 
  0.1666667E+00  0.1666667E+00  0.5000000E+00  0.2777778E-01
   1      -52.015288
   2      -52.015267
   3      -28.834589
   4      -28.820815
   5      -28.395106
   6      -28.376889
   7      -28.347228
   8      -28.345497
   9      -15.870368
  10      -15.640146
  11      -15.440876
  12      -15.204462
  13       -0.427079
  14        0.188262
  15        0.217470
  16        0.421744
  17        0.789860
  18        1.802534
  19        2.128127
  20        2.218152
  21        2.700868
  22        2.944500
  23        2.960498
  24        3.386156
  25        7.011749
  26        7.609704
  27        7.793932
  28        7.803571
  29        8.220325
  30        8.791867
  31        9.252321
  32       10.358791
 
  0.0000000E+00  0.0000000E+00  0.5000000E+00  0.2777778E-01
   1      -52.015366
   2      -52.015365
   3      -28.820099
   4      -28.820099
   5      -28.394545
   6      -28.394545
   7      -28.346839
   8      -28.346839
   9      -15.631125
  10      -15.631125
  11      -15.459496
  12      -15.459496
  13        0.101982
  14        0.101982
  15        0.700786
  16        0.700786
  17        0.859697
  18        0.859697
  19        1.860655
  20        1.860655
  21        2.039241
  22        2.039241
  23        3.431069
  24        3.431069
  25        7.607067
  26        7.607067
  27        7.786685
  28        7.786685
  29        8.480873
  30        8.480873
  31       10.025476
  32       10.025482
 
  0.0000000E+00  0.5000000E+00  0.0000000E+00  0.2777778E-01
   1      -52.060178
   2      -52.060178
   3      -28.501766
   4      -28.501766
   5      -28.432391
   6      -28.432391
   7      -28.289648
   8      -28.289648
   9      -16.089451
  10      -16.089451
  11      -15.338438
  12      -15.338438
  13       -0.476043
  14       -0.476043
  15        0.920066
  16        0.920066
  17        1.176787
  18        1.176787
  19        1.497866
  20        1.497866
  21        3.153870
  22        3.153870
  23        4.212931
  24        4.212931
  25        7.170406
  26        7.170406
  27        7.670673
  28        7.670673
  29        8.243100
  30        8.243100
  31       10.917066
  32       10.917089
 
  0.0000000E+00  0.5000000E+00  0.1666667E+00  0.2777778E-01
   1      -52.048990
   2      -52.048990
   3      -28.483914
   4      -28.483914
   5      -28.458056
   6      -28.458056
   7      -28.370938
   8      -28.370938
   9      -15.900991
  10      -15.900991
  11      -15.432804
  12      -15.432804
  13       -0.152824
  14       -0.152824
  15        0.485777
  16        0.485777
  17        1.250591
  18        1.250591
  19        1.894484
  20        1.894484
  21        2.684649
  22        2.684649
  23        4.360257
  24        4.360257
  25        7.329680
  26        7.329680
  27        7.898804
  28        7.898804
  29        8.218914
  30        8.218914
  31       10.137119
  32       10.137119
 
  0.0000000E+00  0.5000000E+00  0.3333333E+00  0.2777778E-01
   1      -52.026530
   2      -52.026530
   3      -28.716470
   4      -28.716470
   5      -28.387132
   6      -28.387132
   7      -28.376560
   8      -28.376560
   9      -15.816503
  10      -15.816503
  11      -15.337279
  12      -15.337279
  13       -0.185128
  14       -0.185128
  15        0.365483
  16        0.365483
  17        1.273585
  18        1.273585
  19        1.897161
  20        1.897161
  21        3.093434
  22        3.093434
  23        4.006234
  24        4.006234
  25        6.871812
  26        6.871812
  27        7.975083
  28        7.975083
  29        8.543796
  30        8.543796
  31        9.319954
  32        9.319954
 
  0.0000000E+00  0.5000000E+00  0.5000000E+00  0.2777778E-01
   1      -52.015242
   2      -52.015242
   3      -28.841315
   4      -28.841315
   5      -28.372160
   6      -28.372160
   7      -28.345337
   8      -28.345337
   9      -15.914559
  10      -15.914559
  11      -15.149955
  12      -15.149955
  13       -0.618178
  14       -0.618178
  15        0.711967
  16        0.711967
  17        1.260685
  18        1.260685
  19        2.436032
  20        2.436032
  21        2.692165
  22        2.692165
  23        3.999880
  24        3.999880
  25        6.420654
  26        6.420654
  27        7.810605
  28        7.810605
  29        8.732483
  30        8.732483
  31        9.283777
  32        9.283777
 
  0.5000000E+00  0.5000000E+00  0.0000000E+00  0.2777778E-01
   1      -52.059995
   2      -52.059995
   3      -28.593048
   4      -28.593048
   5      -28.338723
   6      -28.338723
   7      -28.288556
   8      -28.288556
   9      -16.209493
  10      -16.209493
  11      -15.168557
  12      -15.168557
  13       -0.804422
  14       -0.804422
  15        0.783692
  16        0.783692
  17        1.782146
  18        1.782146
  19        2.734123
  20        2.734123
  21        3.920367
  22        3.920367
  23        4.254016
  24        4.254016
  25        6.458781
  26        6.458781
  27        7.057824
  28        7.057824
  29        8.832653
  30        8.832653
  31       10.277616
  32       10.277617
 
  0.5000000E+00  0.5000000E+00  0.1666667E+00  0.2777778E-01
   1      -52.048775
   2      -52.048775
   3      -28.550977
   4      -28.550977
   5      -28.426670
   6      -28.426670
   7      -28.335026
   8      -28.335026
   9      -16.006817
  10      -16.006817
  11      -15.302752
  12      -15.302752
  13       -0.550646
  14       -0.550646
  15        0.117881
  16        0.117881
  17        2.567974
  18        2.567974
  19        2.744038
  20        2.744038
  21        2.747618
  22        2.747618
  23        3.502911
  24        3.502911
  25        6.944136
  26        6.944136
  27        7.312040
  28        7.312040
  29        8.403939
  30        8.403939
  31       10.595505
  32       10.595596
 
  0.5000000E+00  0.5000000E+00  0.3333333E+00  0.2777778E-01
   1      -52.026360
   2      -52.026360
   3      -28.691339
   4      -28.691339
   5      -28.458721
   6      -28.458721
   7      -28.333748
   8      -28.333748
   9      -15.589093
  10      -15.589093
  11      -15.562239
  12      -15.562239
  13       -0.368884
  14       -0.368884
  15       -0.050889
  16       -0.050889
  17        1.373953
  18        1.373953
  19        2.519225
  20        2.519225
  21        3.251436
  22        3.251436
  23        3.905023
  24        3.905023
  25        7.553738
  26        7.553738
  27        7.681911
  28        7.681911
  29        7.724182
  30        7.724182
  31       10.626589
  32       10.626845
 
  0.5000000E+00  0.5000000E+00  0.5000000E+00  0.2777778E-01
   1      -52.015262
   2      -52.015262
   3      -28.818721
   4      -28.818721
   5      -28.397407
   6      -28.397407
   7      -28.348025
   8      -28.348025
   9      -15.692748
  10      -15.692748
  11      -15.383787
  12      -15.383787
  13       -0.474436
  14       -0.474436
  15       -0.192454
  16       -0.192454
  17        1.205744
  18        1.205744
  19        1.864877
  20        1.864877
  21        3.498176
  22        3.498176
  23        4.202578
  24        4.202578
  25        7.231393
  26        7.231393
  27        7.826233
  28        7.826233
  29        7.871628
  30        7.871628
  31       10.516062
  32       10.519133
