       N       E                     dE             d eps       ncg     rms          rms(c)
DAV:   1     0.524491242669E+03    0.52449E+03   -0.17525E+04  2312   0.119E+03
DAV:   2     0.470852789758E+02   -0.47741E+03   -0.45776E+03  2344   0.458E+02
DAV:   3    -0.492226321418E+02   -0.96308E+02   -0.87991E+02  4096   0.155E+02
DAV:   4    -0.547400520866E+02   -0.55174E+01   -0.54652E+01  3200   0.385E+01
DAV:   5    -0.549894821635E+02   -0.24943E+00   -0.24932E+00  3432   0.765E+00    0.211E+01
DAV:   6    -0.477501396829E+02    0.72393E+01   -0.15852E+01  3432   0.467E+01    0.113E+01
DAV:   7    -0.471093879407E+02    0.64075E+00   -0.32181E+00  3656   0.120E+01    0.612E+00
DAV:   8    -0.470422991959E+02    0.67089E-01   -0.97932E-01  3352   0.991E+00    0.201E+00
DAV:   9    -0.470674383836E+02   -0.25139E-01   -0.50661E-01  3160   0.837E+00    0.126E+00
DAV:  10    -0.470287977546E+02    0.38641E-01   -0.12185E-01  3256   0.365E+00    0.142E-01
DAV:  11    -0.470301224319E+02   -0.13247E-02   -0.85346E-03  3416   0.663E-01    0.990E-02
DAV:  12    -0.470308570871E+02   -0.73466E-03   -0.21479E-03  3064   0.300E-01    0.194E-01
DAV:  13    -0.470300659489E+02    0.79114E-03   -0.26855E-03  3392   0.543E-01    0.286E-02
DAV:  14    -0.470300886716E+02   -0.22723E-04   -0.19523E-04  2032   0.789E-02
   1 F= -.47030089E+02 E0= -.47030086E+02  d E =-.541925E-05
