<?xml version="1.0" encoding="ISO-8859-1"?>
<modeling>
 <generator>
  <i name="program" type="string">vasp </i>
  <i name="version" type="string">5.2.12  </i>
  <i name="subversion" type="string">11Nov11 complex                                                      parallel </i>
  <i name="platform" type="string">LinuxIFC </i>
  <i name="date" type="string">2020 04 25 </i>
  <i name="time" type="string">19:58:49 </i>
 </generator>
 <incar>
  <i type="int" name="ISTART">     0</i>
  <i type="string" name="PREC">normal</i>
  <i type="int" name="ICHARG">     2</i>
  <i type="int" name="NELM">    40</i>
  <i type="int" name="NELMIN">     2</i>
  <i name="EDIFF">      0.00010000</i>
  <i name="ENCUT">    300.00000000</i>
  <i type="logical" name="LREAL"> F  </i>
  <i type="int" name="ISMEAR">     0</i>
  <i type="int" name="NELM">    40</i>
 </incar>
 <kpoints>
  <generation param="listgenerated">
   <i name="divisions" type="int">       4 </i>
   <v>       0.00000000       0.00000000       0.00000000 </v>
   <v>       0.00000000       0.50000000       0.00000000 </v>
   <v>       0.50000000       0.50000000       0.00000000 </v>
   <v>       0.00000000       0.00000000       0.00000000 </v>
   <v>       0.00000000       0.00000000       0.50000000 </v>
   <v>       0.00000000       0.50000000       0.50000000 </v>
   <v>       0.50000000       0.50000000       0.50000000 </v>
   <v>       0.00000000       0.50000000       0.00000000 </v>
   <v>       0.50000000       0.50000000       0.00000000 </v>
   <v>       0.50000000       0.50000000       0.50000000 </v>
  </generation>
  <varray name="kpointlist" >
   <v>       0.00000000       0.00000000       0.00000000 </v>
   <v>       0.00000000       0.16666667       0.00000000 </v>
   <v>       0.00000000       0.33333333       0.00000000 </v>
   <v>       0.00000000       0.50000000       0.00000000 </v>
   <v>       0.00000000       0.50000000       0.00000000 </v>
   <v>       0.16666667       0.50000000       0.00000000 </v>
   <v>       0.33333333       0.50000000       0.00000000 </v>
   <v>       0.50000000       0.50000000       0.00000000 </v>
   <v>       0.50000000       0.50000000       0.00000000 </v>
   <v>       0.33333333       0.33333333       0.00000000 </v>
   <v>       0.16666667       0.16666667       0.00000000 </v>
   <v>       0.00000000       0.00000000       0.00000000 </v>
   <v>       0.00000000       0.00000000       0.00000000 </v>
   <v>       0.00000000       0.00000000       0.16666667 </v>
   <v>       0.00000000       0.00000000       0.33333333 </v>
   <v>       0.00000000       0.00000000       0.50000000 </v>
   <v>       0.00000000       0.00000000       0.50000000 </v>
   <v>       0.00000000       0.16666667       0.50000000 </v>
   <v>       0.00000000       0.33333333       0.50000000 </v>
   <v>       0.00000000       0.50000000       0.50000000 </v>
   <v>       0.00000000       0.50000000       0.50000000 </v>
   <v>       0.16666667       0.50000000       0.50000000 </v>
   <v>       0.33333333       0.50000000       0.50000000 </v>
   <v>       0.50000000       0.50000000       0.50000000 </v>
   <v>       0.50000000       0.50000000       0.50000000 </v>
   <v>       0.33333333       0.33333333       0.50000000 </v>
   <v>       0.16666667       0.16666667       0.50000000 </v>
   <v>       0.00000000       0.00000000       0.50000000 </v>
   <v>       0.00000000       0.50000000       0.00000000 </v>
   <v>       0.00000000       0.50000000       0.16666667 </v>
   <v>       0.00000000       0.50000000       0.33333333 </v>
   <v>       0.00000000       0.50000000       0.50000000 </v>
   <v>       0.50000000       0.50000000       0.00000000 </v>
   <v>       0.50000000       0.50000000       0.16666667 </v>
   <v>       0.50000000       0.50000000       0.33333333 </v>
   <v>       0.50000000       0.50000000       0.50000000 </v>
  </varray>
  <varray name="weights" >
   <v>       0.02777778 </v>
   <v>       0.02777778 </v>
   <v>       0.02777778 </v>
   <v>       0.02777778 </v>
   <v>       0.02777778 </v>
   <v>       0.02777778 </v>
   <v>       0.02777778 </v>
   <v>       0.02777778 </v>
   <v>       0.02777778 </v>
   <v>       0.02777778 </v>
   <v>       0.02777778 </v>
   <v>       0.02777778 </v>
   <v>       0.02777778 </v>
   <v>       0.02777778 </v>
   <v>       0.02777778 </v>
   <v>       0.02777778 </v>
   <v>       0.02777778 </v>
   <v>       0.02777778 </v>
   <v>       0.02777778 </v>
   <v>       0.02777778 </v>
   <v>       0.02777778 </v>
   <v>       0.02777778 </v>
   <v>       0.02777778 </v>
   <v>       0.02777778 </v>
   <v>       0.02777778 </v>
   <v>       0.02777778 </v>
   <v>       0.02777778 </v>
   <v>       0.02777778 </v>
   <v>       0.02777778 </v>
   <v>       0.02777778 </v>
   <v>       0.02777778 </v>
   <v>       0.02777778 </v>
   <v>       0.02777778 </v>
   <v>       0.02777778 </v>
   <v>       0.02777778 </v>
   <v>       0.02777778 </v>
  </varray>
 </kpoints>
 <parameters>
  <separator name="general" >
   <i type="string" name="SYSTEM">unknown system</i>
   <i type="logical" name="LCOMPAT"> F  </i>
  </separator>
  <separator name="electronic" >
   <i type="string" name="PREC">normal</i>
   <i name="ENMAX">    300.00000000</i>
   <i name="ENAUG">    888.80400000</i>
   <i name="EDIFF">      0.00010000</i>
   <i type="int" name="IALGO">    38</i>
   <i type="int" name="IWAVPR">    10</i>
   <i type="int" name="NBANDS">    32</i>
   <i name="NELECT">     48.00000000</i>
   <i type="int" name="TURBO">     0</i>
   <i type="int" name="IRESTART">     0</i>
   <i type="int" name="NREBOOT">     0</i>
   <i type="int" name="NMIN">     0</i>
   <i name="EREF">      0.00000000</i>
   <separator name="electronic smearing" >
    <i type="int" name="ISMEAR">     0</i>
    <i name="SIGMA">      0.20000000</i>
    <i name="KSPACING">      0.50000000</i>
    <i type="logical" name="KGAMMA"> T  </i>
   </separator>
   <separator name="electronic projectors" >
    <i type="logical" name="LREAL"> F  </i>
    <v name="ROPT">      0.00000000      0.00000000</v>
    <i type="int" name="LMAXPAW">  -100</i>
    <i type="int" name="LMAXMIX">     2</i>
    <i type="logical" name="NLSPLINE"> F  </i>
   </separator>
   <separator name="electronic startup" >
    <i type="int" name="ISTART">     0</i>
    <i type="int" name="ICHARG">     2</i>
    <i type="int" name="INIWAV">     1</i>
   </separator>
   <separator name="electronic spin" >
    <i type="int" name="ISPIN">     1</i>
    <i type="logical" name="LNONCOLLINEAR"> F  </i>
    <v name="MAGMOM">      1.00000000      1.00000000      1.00000000      1.00000000      1.00000000      1.00000000</v>
    <i name="NUPDOWN">     -1.00000000</i>
    <i type="logical" name="LSORBIT"> F  </i>
    <v name="SAXIS">      0.00000000      0.00000000      1.00000000</v>
    <i type="logical" name="LSPIRAL"> F  </i>
    <v name="QSPIRAL">      0.00000000      0.00000000      0.00000000</v>
    <i type="logical" name="LZEROZ"> F  </i>
   </separator>
   <separator name="electronic exchange-correlation" >
    <i type="logical" name="LASPH"> F  </i>
    <i type="logical" name="LMETAGGA"> F  </i>
   </separator>
   <separator name="electronic convergence" >
    <i type="int" name="NELM">    40</i>
    <i type="int" name="NELMDL">    -5</i>
    <i type="int" name="NELMIN">     2</i>
    <i name="ENINI">    300.00000000</i>
    <separator name="electronic convergence detail" >
     <i type="logical" name="LDIAG"> T  </i>
     <i type="logical" name="LSUBROT"> T  </i>
     <i name="WEIMIN">      0.00000000</i>
     <i name="EBREAK">      0.00000078</i>
     <i name="DEPER">      0.30000000</i>
     <i type="int" name="NRMM">     4</i>
     <i name="TIME">      0.40000000</i>
    </separator>
   </separator>
   <separator name="electronic mixer" >
    <i name="AMIX">      0.40000000</i>
    <i name="BMIX">      1.00000000</i>
    <i name="AMIN">      0.10000000</i>
    <i name="AMIX_MAG">      1.60000000</i>
    <i name="BMIX_MAG">      1.00000000</i>
    <separator name="electronic mixer details" >
     <i type="int" name="IMIX">     4</i>
     <i type="int" name="MAXMIX">   -45</i>
     <i name="WC">    100.00000000</i>
     <i type="int" name="INIMIX">     1</i>
     <i type="int" name="MIXPRE">     1</i>
     <i type="int" name="MREMOVE">     5</i>
    </separator>
   </separator>
   <separator name="electronic dipolcorrection" >
    <i type="logical" name="LDIPOL"> F  </i>
    <i type="logical" name="LMONO"> F  </i>
    <i type="int" name="IDIPOL">     0</i>
    <i name="EPSILON">      1.00000000</i>
    <v name="DIPOL">   -100.00000000   -100.00000000   -100.00000000</v>
    <i name="EFIELD">      0.00000000</i>
   </separator>
  </separator>
  <separator name="grids" >
   <i type="int" name="NGX">    20</i>
   <i type="int" name="NGY">    20</i>
   <i type="int" name="NGZ">    14</i>
   <i type="int" name="NGXF">    40</i>
   <i type="int" name="NGYF">    40</i>
   <i type="int" name="NGZF">    28</i>
   <i type="logical" name="ADDGRID"> F  </i>
  </separator>
  <separator name="ionic" >
   <i type="int" name="NSW">     0</i>
   <i type="int" name="IBRION">    -1</i>
   <i type="int" name="ISIF">     2</i>
   <i name="PSTRESS">      0.00000000</i>
   <i name="EDIFFG">      0.00100000</i>
   <i type="int" name="NFREE">     0</i>
   <i name="POTIM">      0.50000000</i>
   <i name="SMASS">     -3.00000000</i>
   <i name="SCALEE">      1.00000000</i>
  </separator>
  <separator name="ionic md" >
   <i name="TEBEG">      0.00010000</i>
   <i name="TEEND">      0.00010000</i>
   <i type="int" name="NBLOCK">     1</i>
   <i type="int" name="KBLOCK">     1</i>
   <i type="int" name="NPACO">   256</i>
   <i name="APACO">     16.00000000</i>
  </separator>
  <separator name="symmetry" >
   <i type="int" name="ISYM">     2</i>
   <i name="SYMPREC">      0.00001000</i>
  </separator>
  <separator name="dos" >
   <i type="logical" name="LORBIT"> F  </i>
   <v name="RWIGS">     -1.00000000     -1.00000000</v>
   <i type="int" name="NEDOS">   301</i>
   <i name="EMIN">     10.00000000</i>
   <i name="EMAX">    -10.00000000</i>
   <i name="EFERMI">      0.00000000</i>
  </separator>
  <separator name="writing" >
   <i type="int" name="NWRITE">     2</i>
   <i type="logical" name="LWAVE"> T  </i>
   <i type="logical" name="LCHARG"> T  </i>
   <i type="logical" name="LPARD"> F  </i>
   <i type="logical" name="LVTOT"> F  </i>
   <i type="logical" name="LVHAR"> F  </i>
   <i type="logical" name="LELF"> F  </i>
   <i type="logical" name="LOPTICS"> F  </i>
   <v name="STM">      0.00000000      0.00000000      0.00000000      0.00000000      0.00000000      0.00000000      0.00000000</v>
  </separator>
  <separator name="performance" >
   <i type="int" name="NPAR">     8</i>
   <i type="int" name="NSIM">     4</i>
   <i type="int" name="NBLK">    -1</i>
   <i type="logical" name="LPLANE"> T  </i>
   <i type="logical" name="LSCALAPACK"> F  </i>
   <i type="logical" name="LSCAAWARE"> F  </i>
   <i type="logical" name="LSCALU"> F  </i>
   <i type="logical" name="LASYNC"> F  </i>
   <i type="logical" name="LORBITALREAL"> F  </i>
  </separator>
  <separator name="miscellaneous" >
   <i type="int" name="IDIOT">     3</i>
   <i type="logical" name="LMUSIC"> F  </i>
   <v name="POMASS">     16.00000000     47.88000000</v>
   <v name="DARWINR">      0.00000000      0.00000000</v>
   <v name="DARWINV">      1.00000000      1.00000000</v>
   <i type="logical" name="LCORR"> T  </i>
  </separator>
  <i type="logical" name="GGA_COMPAT"> T  </i>
  <i type="logical" name="LBERRY"> F  </i>
  <i type="int" name="ICORELEVEL">     0</i>
  <i type="logical" name="LDAU"> F  </i>
  <i type="int" name="I_CONSTRAINED_M">     0</i>
  <separator name="electronic exchange-correlation" >
   <i type="string" name="GGA">--</i>
   <i type="int" name="VOSKOWN">     0</i>
   <i type="logical" name="LHFCALC"> F  </i>
   <i type="string" name="PRECFOCK"></i>
   <i type="logical" name="LHFONE"> F  </i>
   <i type="logical" name="LRHFCALC"> F  </i>
   <i type="logical" name="LTHOMAS"> F  </i>
   <i type="logical" name="LMODELHF"> F  </i>
   <i name="ENCUT4O">     -1.00000000</i>
   <i type="int" name="EXXOEP">     0</i>
   <i type="int" name="FOURORBIT">     0</i>
   <i name="AEXX">      0.00000000</i>
   <i name="HFALPHA">      0.00000000</i>
   <i name="ALDAX">      1.00000000</i>
   <i name="AGGAX">      1.00000000</i>
   <i name="ALDAC">      1.00000000</i>
   <i name="AGGAC">      1.00000000</i>
   <i type="int" name="NKREDX">     1</i>
   <i type="int" name="NKREDY">     1</i>
   <i type="int" name="NKREDZ">     1</i>
   <i type="logical" name="SHIFTRED"> F  </i>
   <i type="logical" name="ODDONLY"> F  </i>
   <i type="logical" name="EVENONLY"> F  </i>
   <i type="int" name="LMAXFOCK">     0</i>
   <i type="int" name="NMAXFOCKAE">     0</i>
   <i type="logical" name="LFOCKAEDFT"> F  </i>
   <i name="HFSCREEN">      0.00000000</i>
   <i name="HFSCREENC">      0.00000000</i>
  </separator>
  <separator name="vdW DFT" >
   <i type="logical" name="LUSE_VDW"> F  </i>
   <i name="Zab_VDW">     -0.84910000</i>
   <i name="PARAM1">      0.12340000</i>
   <i name="PARAM2">      1.00000000</i>
   <i name="PARAM3">      0.00000000</i>
  </separator>
  <separator name="model GW" >
   <i type="int" name="MODEL_GW">     0</i>
   <i name="MODEL_EPS0">      6.23665409</i>
   <i name="MODEL_ALPHA">      1.00000000</i>
  </separator>
  <separator name="linear response parameters" >
   <i type="logical" name="LEPSILON"> F  </i>
   <i type="logical" name="LRPA"> F  </i>
   <i type="logical" name="LNABLA"> F  </i>
   <i type="logical" name="LVEL"> F  </i>
   <i type="int" name="KINTER">     0</i>
   <i name="CSHIFT">      0.10000000</i>
   <i name="OMEGAMAX">     -1.00000000</i>
  </separator>
  <separator name="orbital magnetization" >
   <i type="logical" name="NUCIND"> F  </i>
   <v name="MAGPOS">      0.00000000      0.00000000      0.00000000</v>
   <i type="logical" name="LNICSALL"> T  </i>
   <i type="logical" name="ORBITALMAG"> F  </i>
   <i type="logical" name="LMAGBLOCH"> F  </i>
   <i type="logical" name="LCHIMAG"> F  </i>
   <i type="logical" name="LGAUGE"> T  </i>
   <i type="int" name="MAGATOM">     0</i>
   <v name="MAGDIPOL">      0.00000000      0.00000000      0.00000000</v>
   <v name="AVECCONST">      0.00000000      0.00000000      0.00000000</v>
  </separator>
  <separator name="response functions" >
   <i type="logical" name="LADDER"> F  </i>
   <i type="logical" name="LHARTREE"> T  </i>
   <i type="int" name="IBSE">     0</i>
   <i type="logical" name="LTCTE"> F  </i>
   <i type="logical" name="LTETE"> F  </i>
   <i type="logical" name="LFXCEPS"> F  </i>
   <i type="logical" name="L2ORDER"> F  </i>
   <i type="logical" name="LUSEW"> F  </i>
   <i name="ENCUTGW">     -2.00000000</i>
   <i name="ENCUTGWSOFT">     -2.00000000</i>
   <i name="ENCUTLF">     -1.00000000</i>
   <i type="int" name="LMAXMP2">    -1</i>
   <i name="SCISSOR">      0.00000000</i>
   <i type="int" name="NOMEGA">     0</i>
   <i type="int" name="NOMEGAR">     0</i>
   <i type="int" name="NBANDSGW">    -1</i>
   <i type="int" name="NBANDSO">    -1</i>
   <i type="int" name="NBANDSV">    -1</i>
   <i name="OPTEMAX">      0.00000000</i>
   <i type="int" name="NELM">    40</i>
   <i type="int" name="DIM">     3</i>
   <i type="int" name="ANTIRES">     0</i>
   <i name="OMEGAMAX">    -30.00000000</i>
   <i name="OMEGATL">   -200.00000000</i>
   <i type="int" name="OMEGAGRID">     0</i>
   <i name="CSHIFT">     -0.10000000</i>
   <i type="logical" name="SELFENERGY"> F  </i>
   <i type="logical" name="LSPECTRAL"> F  </i>
   <i type="logical" name="ODDONLYGW"> F  </i>
   <i type="logical" name="EVENONLYGW"> F  </i>
   <i type="int" name="NKREDLFX">     1</i>
   <i type="int" name="NKREDLFY">     1</i>
   <i type="int" name="NKREDLFZ">     1</i>
   <i type="int" name="MAXMEM">  1800</i>
   <i type="int" name="TELESCOPE">     0</i>
  </separator>
 </parameters>
 <atominfo>
  <atoms>       6 </atoms>
  <types>       2 </types>
  <array name="atoms" >
   <dimension dim="1">ion</dimension>
   <field type="string">element</field>
   <field type="int">atomtype</field>
   <set>
    <rc><c>O </c><c>   1</c></rc>
    <rc><c>O </c><c>   1</c></rc>
    <rc><c>O </c><c>   1</c></rc>
    <rc><c>O </c><c>   1</c></rc>
    <rc><c>Ti</c><c>   2</c></rc>
    <rc><c>Ti</c><c>   2</c></rc>
   </set>
  </array>
  <array name="atomtypes" >
   <dimension dim="1">type</dimension>
   <field type="int">atomspertype</field>
   <field type="string">element</field>
   <field>mass</field>
   <field>valence</field>
   <field type="string">pseudopotential</field>
   <set>
    <rc><c>   4</c><c>O </c><c>     16.00000000</c><c>      6.00000000</c><c> PAW_PBE O_h 20Dec2001                  </c></rc>
    <rc><c>   2</c><c>Ti</c><c>     47.88000000</c><c>     12.00000000</c><c> PAW_PBE Ti_sv 07Sep2000                </c></rc>
   </set>
  </array>
 </atominfo>
 <structure name="initialpos" >
  <crystal>
   <varray name="basis" >
    <v>       4.59220000       0.00000000       0.00000000 </v>
    <v>       0.00000000       4.59220000       0.00000000 </v>
    <v>       0.00000000       0.00000000       2.95740000 </v>
   </varray>
   <i name="volume">     62.36654090 </i>
   <varray name="rec_basis" >
    <v>       0.21776055       0.00000000       0.00000000 </v>
    <v>       0.00000000       0.21776055       0.00000000 </v>
    <v>       0.00000000       0.00000000       0.33813485 </v>
   </varray>
  </crystal>
  <varray name="positions" >
   <v>       0.30496000       0.30496000       0.00000000 </v>
   <v>       0.69504000       0.69504000       0.00000000 </v>
   <v>       0.19504000       0.80496000       0.50000000 </v>
   <v>       0.80496000       0.19504000       0.50000000 </v>
   <v>       0.00000000       0.00000000       0.00000000 </v>
   <v>       0.50000000       0.50000000       0.50000000 </v>
  </varray>
 </structure>
 <calculation>
  <scstep>
   <time name="dav">    0.69    0.69</time>
   <time name="total">    0.72    0.72</time>
   <energy>
    <i name="alphaZ">    245.51435642 </i>
    <i name="ewald">  -3597.13038839 </i>
    <i name="hartreedc">  -1251.03562084 </i>
    <i name="XCdc">    235.21158416 </i>
    <i name="pawpsdc">   2800.12051630 </i>
    <i name="pawaedc">  -2772.42593410 </i>
    <i name="eentropy">     -0.04019729 </i>
    <i name="bandstr">     18.51176052 </i>
    <i name="atom">   4845.76516590 </i>
    <i name="e_fr_energy">    524.49124267 </i>
    <i name="e_wo_entrp">    524.53143996 </i>
    <i name="e_0_energy">    524.51134132 </i>
   </energy>
  </scstep>
  <scstep>
   <time name="dav">    0.70    0.70</time>
   <time name="total">    0.70    0.70</time>
   <energy>
    <i name="e_fr_energy">     47.08527898 </i>
    <i name="e_wo_entrp">     47.14148076 </i>
    <i name="e_0_energy">     47.11337987 </i>
   </energy>
  </scstep>
  <scstep>
   <time name="dav">    1.22    1.22</time>
   <time name="total">    1.22    1.23</time>
   <energy>
    <i name="e_fr_energy">    -49.22263214 </i>
    <i name="e_wo_entrp">    -49.22263214 </i>
    <i name="e_0_energy">    -49.22263214 </i>
   </energy>
  </scstep>
  <scstep>
   <time name="dav">    0.97    0.98</time>
   <time name="total">    0.97    0.99</time>
   <energy>
    <i name="e_fr_energy">    -54.74005209 </i>
    <i name="e_wo_entrp">    -54.74005209 </i>
    <i name="e_0_energy">    -54.74005209 </i>
   </energy>
  </scstep>
  <scstep>
   <time name="dav">    0.98    0.98</time>
   <time name="total">    1.00    1.00</time>
   <energy>
    <i name="e_fr_energy">    -54.98948216 </i>
    <i name="e_wo_entrp">    -54.98948216 </i>
    <i name="e_0_energy">    -54.98948216 </i>
   </energy>
  </scstep>
  <scstep>
   <time name="dav">    0.98    0.98</time>
   <time name="total">    1.02    1.02</time>
   <energy>
    <i name="e_fr_energy">    -47.75013968 </i>
    <i name="e_wo_entrp">    -47.74993771 </i>
    <i name="e_0_energy">    -47.75003870 </i>
   </energy>
  </scstep>
  <scstep>
   <time name="dav">    1.03    1.03</time>
   <time name="total">    1.07    1.07</time>
   <energy>
    <i name="e_fr_energy">    -47.10938794 </i>
    <i name="e_wo_entrp">    -47.10938791 </i>
    <i name="e_0_energy">    -47.10938793 </i>
   </energy>
  </scstep>
  <scstep>
   <time name="dav">    0.94    0.94</time>
   <time name="total">    0.98    0.98</time>
   <energy>
    <i name="e_fr_energy">    -47.04229920 </i>
    <i name="e_wo_entrp">    -47.04219079 </i>
    <i name="e_0_energy">    -47.04224500 </i>
   </energy>
  </scstep>
  <scstep>
   <time name="dav">    0.89    0.89</time>
   <time name="total">    0.93    0.93</time>
   <energy>
    <i name="e_fr_energy">    -47.06743838 </i>
    <i name="e_wo_entrp">    -47.06743831 </i>
    <i name="e_0_energy">    -47.06743835 </i>
   </energy>
  </scstep>
  <scstep>
   <time name="dav">    0.92    0.92</time>
   <time name="total">    0.96    0.96</time>
   <energy>
    <i name="e_fr_energy">    -47.02879775 </i>
    <i name="e_wo_entrp">    -47.02879163 </i>
    <i name="e_0_energy">    -47.02879469 </i>
   </energy>
  </scstep>
  <scstep>
   <time name="dav">    0.97    0.97</time>
   <time name="total">    1.01    1.01</time>
   <energy>
    <i name="e_fr_energy">    -47.03012243 </i>
    <i name="e_wo_entrp">    -47.03011785 </i>
    <i name="e_0_energy">    -47.03012014 </i>
   </energy>
  </scstep>
  <scstep>
   <time name="dav">    0.88    0.88</time>
   <time name="total">    0.92    0.92</time>
   <energy>
    <i name="e_fr_energy">    -47.03085709 </i>
    <i name="e_wo_entrp">    -47.03085396 </i>
    <i name="e_0_energy">    -47.03085552 </i>
   </energy>
  </scstep>
  <scstep>
   <time name="dav">    0.95    0.95</time>
   <time name="total">    0.99    1.00</time>
   <energy>
    <i name="e_fr_energy">    -47.03006595 </i>
    <i name="e_wo_entrp">    -47.03006055 </i>
    <i name="e_0_energy">    -47.03006325 </i>
   </energy>
  </scstep>
  <scstep>
   <time name="dav">    0.64    0.64</time>
   <time name="total">    0.65    0.65</time>
   <energy>
    <i name="alphaZ">    245.51435642 </i>
    <i name="ewald">  -3597.13038839 </i>
    <i name="hartreedc">  -1180.13886303 </i>
    <i name="XCdc">    232.54879462 </i>
    <i name="pawpsdc">   2846.68872582 </i>
    <i name="pawaedc">  -2808.63247496 </i>
    <i name="eentropy">     -0.00000542 </i>
    <i name="bandstr">   -631.64539963 </i>
    <i name="atom">   4845.76516590 </i>
    <i name="e_fr_energy">    -47.03008867 </i>
    <i name="e_wo_entrp">    -47.03008325 </i>
    <i name="e_0_energy">    -47.03008596 </i>
   </energy>
  </scstep>
  <parameters_embedded>
   <separator name="dft+d2" >
    <i type="logical" name="LVDW"> F  </i>
   </separator>
  </parameters_embedded>
  <structure>
   <crystal>
    <varray name="basis" >
     <v>       4.59220000       0.00000000       0.00000000 </v>
     <v>       0.00000000       4.59220000       0.00000000 </v>
     <v>       0.00000000       0.00000000       2.95740000 </v>
    </varray>
    <i name="volume">     62.36654090 </i>
    <varray name="rec_basis" >
     <v>       0.21776055       0.00000000       0.00000000 </v>
     <v>       0.00000000       0.21776055       0.00000000 </v>
     <v>       0.00000000       0.00000000       0.33813485 </v>
    </varray>
   </crystal>
   <varray name="positions" >
    <v>       0.30496000       0.30496000       0.00000000 </v>
    <v>       0.69504000       0.69504000       0.00000000 </v>
    <v>       0.19504000       0.80496000       0.50000000 </v>
    <v>       0.80496000       0.19504000       0.50000000 </v>
    <v>       0.00000000       0.00000000       0.00000000 </v>
    <v>       0.50000000       0.50000000       0.50000000 </v>
   </varray>
  </structure>
  <varray name="forces" >
   <v>      -0.51445310      -0.51445310       0.00000000 </v>
   <v>       0.51445310       0.51445310       0.00000000 </v>
   <v>       0.51445310      -0.51445310       0.00000000 </v>
   <v>      -0.51445310       0.51445310       0.00000000 </v>
   <v>       0.00000000       0.00000000       0.00000000 </v>
   <v>       0.00000000       0.00000000       0.00000000 </v>
  </varray>
  <varray name="stress" >
   <v>   -2544.96935076       0.00000000       0.00000000 </v>
   <v>       0.00000000   -2544.96935076       0.00000000 </v>
   <v>       0.00000000       0.00000000   -2539.18697557 </v>
  </varray>
  <energy>
   <i name="e_fr_energy">    -47.03008867 </i>
   <i name="e_wo_entrp">    -47.03008596 </i>
   <i name="e_0_energy">     -0.00000542 </i>
  </energy>
  <time name="totalsc">   14.11   14.26</time>
  <eigenvalues>
   <array>
    <dimension dim="1">band</dimension>
    <dimension dim="2">kpoint</dimension>
    <dimension dim="3">spin</dimension>
    <field>eigene</field>
    <field>occ</field>
    <set>
     <set comment="spin 1">
      <set comment="kpoint 1">
       <r>  -52.0710    1.0000 </r>
       <r>  -52.0499    1.0000 </r>
       <r>  -28.5799    1.0000 </r>
       <r>  -28.5799    1.0000 </r>
       <r>  -28.3488    1.0000 </r>
       <r>  -28.3488    1.0000 </r>
       <r>  -28.3093    1.0000 </r>
       <r>  -28.2705    1.0000 </r>
       <r>  -16.7150    1.0000 </r>
       <r>  -15.8596    1.0000 </r>
       <r>  -15.0948    1.0000 </r>
       <r>  -15.0948    1.0000 </r>
       <r>   -1.3300    1.0000 </r>
       <r>   -0.7487    1.0000 </r>
       <r>   -0.4862    1.0000 </r>
       <r>    0.8424    1.0000 </r>
       <r>    0.8424    1.0000 </r>
       <r>    1.6482    1.0000 </r>
       <r>    1.6482    1.0000 </r>
       <r>    2.3403    1.0000 </r>
       <r>    4.8789    1.0000 </r>
       <r>    4.9572    1.0000 </r>
       <r>    4.9572    1.0000 </r>
       <r>    5.2329    1.0000 </r>
       <r>    6.4177    0.0000 </r>
       <r>    6.7535    0.0000 </r>
       <r>    7.0095    0.0000 </r>
       <r>    7.0333    0.0000 </r>
       <r>    7.0333    0.0000 </r>
       <r>    8.6740    0.0000 </r>
       <r>    9.3977    0.0000 </r>
       <r>   10.9776    0.0000 </r>
      </set>
      <set comment="kpoint 2">
       <r>  -52.0696    1.0000 </r>
       <r>  -52.0510    1.0000 </r>
       <r>  -28.5668    1.0000 </r>
       <r>  -28.5656    1.0000 </r>
       <r>  -28.3645    1.0000 </r>
       <r>  -28.3632    1.0000 </r>
       <r>  -28.3062    1.0000 </r>
       <r>  -28.2726    1.0000 </r>
       <r>  -16.6303    1.0000 </r>
       <r>  -15.8457    1.0000 </r>
       <r>  -15.1835    1.0000 </r>
       <r>  -15.1316    1.0000 </r>
       <r>   -1.1644    1.0000 </r>
       <r>   -0.6012    1.0000 </r>
       <r>   -0.4229    1.0000 </r>
       <r>    0.8748    1.0000 </r>
       <r>    0.8862    1.0000 </r>
       <r>    1.5686    1.0000 </r>
       <r>    1.7088    1.0000 </r>
       <r>    2.4707    1.0000 </r>
       <r>    3.9907    1.0000 </r>
       <r>    4.4680    1.0000 </r>
       <r>    4.5602    1.0000 </r>
       <r>    5.0919    1.0000 </r>
       <r>    6.5956    0.0000 </r>
       <r>    7.0580    0.0000 </r>
       <r>    7.1541    0.0000 </r>
       <r>    7.2263    0.0000 </r>
       <r>    7.2772    0.0000 </r>
       <r>    8.9319    0.0000 </r>
       <r>    9.2107    0.0000 </r>
       <r>   11.5371    0.0000 </r>
      </set>
      <set comment="kpoint 3">
       <r>  -52.0656    1.0000 </r>
       <r>  -52.0549    1.0000 </r>
       <r>  -28.5327    1.0000 </r>
       <r>  -28.5297    1.0000 </r>
       <r>  -28.4033    1.0000 </r>
       <r>  -28.3996    1.0000 </r>
       <r>  -28.2991    1.0000 </r>
       <r>  -28.2797    1.0000 </r>
       <r>  -16.3971    1.0000 </r>
       <r>  -15.8688    1.0000 </r>
       <r>  -15.3375    1.0000 </r>
       <r>  -15.2327    1.0000 </r>
       <r>   -0.8290    1.0000 </r>
       <r>   -0.4362    1.0000 </r>
       <r>    0.1866    1.0000 </r>
       <r>    0.8512    1.0000 </r>
       <r>    0.9300    1.0000 </r>
       <r>    1.3137    1.0000 </r>
       <r>    1.7932    1.0000 </r>
       <r>    2.6817    1.0000 </r>
       <r>    2.7241    1.0000 </r>
       <r>    3.9206    1.0000 </r>
       <r>    4.0055    1.0000 </r>
       <r>    4.6049    1.0000 </r>
       <r>    6.9136    0.0000 </r>
       <r>    7.2535    0.0000 </r>
       <r>    7.4369    0.0000 </r>
       <r>    7.6303    0.0000 </r>
       <r>    7.7016    0.0000 </r>
       <r>    8.7655    0.0000 </r>
       <r>    9.7919    0.0000 </r>
       <r>   11.4197    0.0000 </r>
      </set>
      <set comment="kpoint 4">
       <r>  -52.0602    1.0000 </r>
       <r>  -52.0602    1.0000 </r>
       <r>  -28.5018    1.0000 </r>
       <r>  -28.5018    1.0000 </r>
       <r>  -28.4324    1.0000 </r>
       <r>  -28.4324    1.0000 </r>
       <r>  -28.2896    1.0000 </r>
       <r>  -28.2896    1.0000 </r>
       <r>  -16.0895    1.0000 </r>
       <r>  -16.0895    1.0000 </r>
       <r>  -15.3384    1.0000 </r>
       <r>  -15.3384    1.0000 </r>
       <r>   -0.4760    1.0000 </r>
       <r>   -0.4760    1.0000 </r>
       <r>    0.9201    1.0000 </r>
       <r>    0.9201    1.0000 </r>
       <r>    1.1768    1.0000 </r>
       <r>    1.1768    1.0000 </r>
       <r>    1.4979    1.0000 </r>
       <r>    1.4979    1.0000 </r>
       <r>    3.1539    1.0000 </r>
       <r>    3.1539    1.0000 </r>
       <r>    4.2129    1.0000 </r>
       <r>    4.2129    1.0000 </r>
       <r>    7.1704    0.0000 </r>
       <r>    7.1704    0.0000 </r>
       <r>    7.6707    0.0000 </r>
       <r>    7.6707    0.0000 </r>
       <r>    8.2431    0.0000 </r>
       <r>    8.2431    0.0000 </r>
       <r>   10.9172    0.0000 </r>
       <r>   10.9173    0.0000 </r>
      </set>
      <set comment="kpoint 5">
       <r>  -52.0602    1.0000 </r>
       <r>  -52.0602    1.0000 </r>
       <r>  -28.5018    1.0000 </r>
       <r>  -28.5018    1.0000 </r>
       <r>  -28.4324    1.0000 </r>
       <r>  -28.4324    1.0000 </r>
       <r>  -28.2896    1.0000 </r>
       <r>  -28.2896    1.0000 </r>
       <r>  -16.0895    1.0000 </r>
       <r>  -16.0895    1.0000 </r>
       <r>  -15.3384    1.0000 </r>
       <r>  -15.3384    1.0000 </r>
       <r>   -0.4760    1.0000 </r>
       <r>   -0.4760    1.0000 </r>
       <r>    0.9201    1.0000 </r>
       <r>    0.9201    1.0000 </r>
       <r>    1.1768    1.0000 </r>
       <r>    1.1768    1.0000 </r>
       <r>    1.4979    1.0000 </r>
       <r>    1.4979    1.0000 </r>
       <r>    3.1539    1.0000 </r>
       <r>    3.1539    1.0000 </r>
       <r>    4.2129    1.0000 </r>
       <r>    4.2129    1.0000 </r>
       <r>    7.1704    0.0000 </r>
       <r>    7.1704    0.0000 </r>
       <r>    7.6707    0.0000 </r>
       <r>    7.6707    0.0000 </r>
       <r>    8.2431    0.0000 </r>
       <r>    8.2431    0.0000 </r>
       <r>   10.9171    0.0000 </r>
       <r>   10.9171    0.0000 </r>
      </set>
      <set comment="kpoint 6">
       <r>  -52.0602    1.0000 </r>
       <r>  -52.0602    1.0000 </r>
       <r>  -28.5370    1.0000 </r>
       <r>  -28.5370    1.0000 </r>
       <r>  -28.3968    1.0000 </r>
       <r>  -28.3968    1.0000 </r>
       <r>  -28.2890    1.0000 </r>
       <r>  -28.2890    1.0000 </r>
       <r>  -16.1221    1.0000 </r>
       <r>  -16.1221    1.0000 </r>
       <r>  -15.2945    1.0000 </r>
       <r>  -15.2945    1.0000 </r>
       <r>   -0.5944    1.0000 </r>
       <r>   -0.5944    1.0000 </r>
       <r>    0.8489    1.0000 </r>
       <r>    0.8489    1.0000 </r>
       <r>    1.0484    1.0000 </r>
       <r>    1.0484    1.0000 </r>
       <r>    2.1625    1.0000 </r>
       <r>    2.1625    1.0000 </r>
       <r>    3.4382    1.0000 </r>
       <r>    3.4382    1.0000 </r>
       <r>    4.1048    1.0000 </r>
       <r>    4.1048    1.0000 </r>
       <r>    7.0549    0.0000 </r>
       <r>    7.0549    0.0000 </r>
       <r>    7.5411    0.0000 </r>
       <r>    7.5411    0.0000 </r>
       <r>    8.3652    0.0000 </r>
       <r>    8.3652    0.0000 </r>
       <r>   10.7464    0.0000 </r>
       <r>   10.7465    0.0000 </r>
      </set>
      <set comment="kpoint 7">
       <r>  -52.0602    1.0000 </r>
       <r>  -52.0602    1.0000 </r>
       <r>  -28.5781    1.0000 </r>
       <r>  -28.5781    1.0000 </r>
       <r>  -28.3551    1.0000 </r>
       <r>  -28.3551    1.0000 </r>
       <r>  -28.2889    1.0000 </r>
       <r>  -28.2889    1.0000 </r>
       <r>  -16.1885    1.0000 </r>
       <r>  -16.1885    1.0000 </r>
       <r>  -15.2162    1.0000 </r>
       <r>  -15.2162    1.0000 </r>
       <r>   -0.8391    1.0000 </r>
       <r>   -0.8391    1.0000 </r>
       <r>    0.7046    1.0000 </r>
       <r>    0.7046    1.0000 </r>
       <r>    1.3071    1.0000 </r>
       <r>    1.3071    1.0000 </r>
       <r>    2.6738    1.0000 </r>
       <r>    2.6738    1.0000 </r>
       <r>    3.6828    1.0000 </r>
       <r>    3.6828    1.0000 </r>
       <r>    3.8367    1.0000 </r>
       <r>    3.8367    1.0000 </r>
       <r>    6.7029    0.0000 </r>
       <r>    6.7029    0.0000 </r>
       <r>    7.2217    0.0000 </r>
       <r>    7.2217    0.0000 </r>
       <r>    8.6090    0.0000 </r>
       <r>    8.6090    0.0000 </r>
       <r>   10.3767    0.0000 </r>
       <r>   10.3767    0.0000 </r>
      </set>
      <set comment="kpoint 8">
       <r>  -52.0600    1.0000 </r>
       <r>  -52.0600    1.0000 </r>
       <r>  -28.5930    1.0000 </r>
       <r>  -28.5930    1.0000 </r>
       <r>  -28.3387    1.0000 </r>
       <r>  -28.3387    1.0000 </r>
       <r>  -28.2886    1.0000 </r>
       <r>  -28.2886    1.0000 </r>
       <r>  -16.2095    1.0000 </r>
       <r>  -16.2095    1.0000 </r>
       <r>  -15.1686    1.0000 </r>
       <r>  -15.1686    1.0000 </r>
       <r>   -0.8044    1.0000 </r>
       <r>   -0.8044    1.0000 </r>
       <r>    0.7837    1.0000 </r>
       <r>    0.7837    1.0000 </r>
       <r>    1.7821    1.0000 </r>
       <r>    1.7821    1.0000 </r>
       <r>    2.7341    1.0000 </r>
       <r>    2.7341    1.0000 </r>
       <r>    3.9204    1.0000 </r>
       <r>    3.9204    1.0000 </r>
       <r>    4.2540    1.0000 </r>
       <r>    4.2540    1.0000 </r>
       <r>    6.4588    0.0000 </r>
       <r>    6.4588    0.0000 </r>
       <r>    7.0578    0.0000 </r>
       <r>    7.0578    0.0000 </r>
       <r>    8.8327    0.0000 </r>
       <r>    8.8327    0.0000 </r>
       <r>   10.2776    0.0000 </r>
       <r>   10.2776    0.0000 </r>
      </set>
      <set comment="kpoint 9">
       <r>  -52.0600    1.0000 </r>
       <r>  -52.0600    1.0000 </r>
       <r>  -28.5930    1.0000 </r>
       <r>  -28.5930    1.0000 </r>
       <r>  -28.3387    1.0000 </r>
       <r>  -28.3387    1.0000 </r>
       <r>  -28.2886    1.0000 </r>
       <r>  -28.2886    1.0000 </r>
       <r>  -16.2095    1.0000 </r>
       <r>  -16.2095    1.0000 </r>
       <r>  -15.1686    1.0000 </r>
       <r>  -15.1686    1.0000 </r>
       <r>   -0.8044    1.0000 </r>
       <r>   -0.8044    1.0000 </r>
       <r>    0.7837    1.0000 </r>
       <r>    0.7837    1.0000 </r>
       <r>    1.7821    1.0000 </r>
       <r>    1.7821    1.0000 </r>
       <r>    2.7341    1.0000 </r>
       <r>    2.7341    1.0000 </r>
       <r>    3.9204    1.0000 </r>
       <r>    3.9204    1.0000 </r>
       <r>    4.2540    1.0000 </r>
       <r>    4.2540    1.0000 </r>
       <r>    6.4588    0.0000 </r>
       <r>    6.4588    0.0000 </r>
       <r>    7.0578    0.0000 </r>
       <r>    7.0578    0.0000 </r>
       <r>    8.8327    0.0000 </r>
       <r>    8.8327    0.0000 </r>
       <r>   10.2776    0.0000 </r>
       <r>   10.2776    0.0000 </r>
      </set>
      <set comment="kpoint 10">
       <r>  -52.0628    1.0000 </r>
       <r>  -52.0575    1.0000 </r>
       <r>  -28.5901    1.0000 </r>
       <r>  -28.5397    1.0000 </r>
       <r>  -28.3939    1.0000 </r>
       <r>  -28.3414    1.0000 </r>
       <r>  -28.2935    1.0000 </r>
       <r>  -28.2843    1.0000 </r>
       <r>  -16.3122    1.0000 </r>
       <r>  -16.0282    1.0000 </r>
       <r>  -15.3138    1.0000 </r>
       <r>  -15.1608    1.0000 </r>
       <r>   -0.9775    1.0000 </r>
       <r>   -0.5464    1.0000 </r>
       <r>    0.7150    1.0000 </r>
       <r>    0.7357    1.0000 </r>
       <r>    0.8042    1.0000 </r>
       <r>    1.6119    1.0000 </r>
       <r>    2.2015    1.0000 </r>
       <r>    3.0607    1.0000 </r>
       <r>    3.3254    1.0000 </r>
       <r>    3.4176    1.0000 </r>
       <r>    3.9038    1.0000 </r>
       <r>    4.4033    1.0000 </r>
       <r>    6.4751    0.0000 </r>
       <r>    7.0511    0.0000 </r>
       <r>    7.0727    0.0000 </r>
       <r>    7.5454    0.0000 </r>
       <r>    8.3151    0.0000 </r>
       <r>    8.7840    0.0000 </r>
       <r>    9.8629    0.0000 </r>
       <r>   11.0485    0.0000 </r>
      </set>
      <set comment="kpoint 11">
       <r>  -52.0684    1.0000 </r>
       <r>  -52.0524    1.0000 </r>
       <r>  -28.5834    1.0000 </r>
       <r>  -28.5287    1.0000 </r>
       <r>  -28.4041    1.0000 </r>
       <r>  -28.3467    1.0000 </r>
       <r>  -28.3040    1.0000 </r>
       <r>  -28.2747    1.0000 </r>
       <r>  -16.5634    1.0000 </r>
       <r>  -15.8459    1.0000 </r>
       <r>  -15.2830    1.0000 </r>
       <r>  -15.1199    1.0000 </r>
       <r>   -1.1461    1.0000 </r>
       <r>   -0.4800    1.0000 </r>
       <r>   -0.2877    1.0000 </r>
       <r>    0.8293    1.0000 </r>
       <r>    0.8412    1.0000 </r>
       <r>    1.3588    1.0000 </r>
       <r>    1.7072    1.0000 </r>
       <r>    2.5152    1.0000 </r>
       <r>    3.4503    1.0000 </r>
       <r>    4.2378    1.0000 </r>
       <r>    4.3533    1.0000 </r>
       <r>    5.1356    1.0000 </r>
       <r>    6.4954    0.0000 </r>
       <r>    7.0388    0.0000 </r>
       <r>    7.1769    0.0000 </r>
       <r>    7.4680    0.0000 </r>
       <r>    7.5587    0.0000 </r>
       <r>    9.0614    0.0000 </r>
       <r>    9.0795    0.0000 </r>
       <r>   11.3787    0.0000 </r>
      </set>
      <set comment="kpoint 12">
       <r>  -52.0710    1.0000 </r>
       <r>  -52.0499    1.0000 </r>
       <r>  -28.5799    1.0000 </r>
       <r>  -28.5799    1.0000 </r>
       <r>  -28.3488    1.0000 </r>
       <r>  -28.3488    1.0000 </r>
       <r>  -28.3093    1.0000 </r>
       <r>  -28.2705    1.0000 </r>
       <r>  -16.7150    1.0000 </r>
       <r>  -15.8596    1.0000 </r>
       <r>  -15.0948    1.0000 </r>
       <r>  -15.0948    1.0000 </r>
       <r>   -1.3300    1.0000 </r>
       <r>   -0.7487    1.0000 </r>
       <r>   -0.4862    1.0000 </r>
       <r>    0.8424    1.0000 </r>
       <r>    0.8424    1.0000 </r>
       <r>    1.6482    1.0000 </r>
       <r>    1.6482    1.0000 </r>
       <r>    2.3403    1.0000 </r>
       <r>    4.8789    1.0000 </r>
       <r>    4.9572    1.0000 </r>
       <r>    4.9572    1.0000 </r>
       <r>    5.2329    1.0000 </r>
       <r>    6.4177    0.0000 </r>
       <r>    6.7535    0.0000 </r>
       <r>    7.0095    0.0000 </r>
       <r>    7.0333    0.0000 </r>
       <r>    7.0333    0.0000 </r>
       <r>    8.6740    0.0000 </r>
       <r>    9.3977    0.0000 </r>
       <r>   10.9776    0.0000 </r>
      </set>
      <set comment="kpoint 13">
       <r>  -52.0710    1.0000 </r>
       <r>  -52.0499    1.0000 </r>
       <r>  -28.5799    1.0000 </r>
       <r>  -28.5799    1.0000 </r>
       <r>  -28.3488    1.0000 </r>
       <r>  -28.3488    1.0000 </r>
       <r>  -28.3093    1.0000 </r>
       <r>  -28.2705    1.0000 </r>
       <r>  -16.7150    1.0000 </r>
       <r>  -15.8596    1.0000 </r>
       <r>  -15.0948    1.0000 </r>
       <r>  -15.0948    1.0000 </r>
       <r>   -1.3300    1.0000 </r>
       <r>   -0.7487    1.0000 </r>
       <r>   -0.4862    1.0000 </r>
       <r>    0.8424    1.0000 </r>
       <r>    0.8424    1.0000 </r>
       <r>    1.6482    1.0000 </r>
       <r>    1.6482    1.0000 </r>
       <r>    2.3403    1.0000 </r>
       <r>    4.8789    1.0000 </r>
       <r>    4.9572    1.0000 </r>
       <r>    4.9572    1.0000 </r>
       <r>    5.2329    1.0000 </r>
       <r>    6.4177    0.0000 </r>
       <r>    6.7535    0.0000 </r>
       <r>    7.0095    0.0000 </r>
       <r>    7.0333    0.0000 </r>
       <r>    7.0333    0.0000 </r>
       <r>    8.6740    0.0000 </r>
       <r>    9.3977    0.0000 </r>
       <r>   10.9776    0.0000 </r>
      </set>
      <set comment="kpoint 14">
       <r>  -52.0584    1.0000 </r>
       <r>  -52.0397    1.0000 </r>
       <r>  -28.5389    1.0000 </r>
       <r>  -28.5389    1.0000 </r>
       <r>  -28.4418    1.0000 </r>
       <r>  -28.4123    1.0000 </r>
       <r>  -28.3435    1.0000 </r>
       <r>  -28.3435    1.0000 </r>
       <r>  -16.4594    1.0000 </r>
       <r>  -15.6942    1.0000 </r>
       <r>  -15.2277    1.0000 </r>
       <r>  -15.2277    1.0000 </r>
       <r>   -0.8871    1.0000 </r>
       <r>   -0.3835    1.0000 </r>
       <r>   -0.2204    1.0000 </r>
       <r>    0.5416    1.0000 </r>
       <r>    0.5416    1.0000 </r>
       <r>    1.9591    1.0000 </r>
       <r>    2.3991    1.0000 </r>
       <r>    2.3991    1.0000 </r>
       <r>    3.1816    1.0000 </r>
       <r>    4.1303    1.0000 </r>
       <r>    4.1303    1.0000 </r>
       <r>    4.9623    1.0000 </r>
       <r>    6.7949    0.0000 </r>
       <r>    6.9480    0.0000 </r>
       <r>    7.0998    0.0000 </r>
       <r>    7.5495    0.0000 </r>
       <r>    7.5495    0.0000 </r>
       <r>    9.1414    0.0000 </r>
       <r>    9.1936    0.0000 </r>
       <r>   11.1175    0.0000 </r>
      </set>
      <set comment="kpoint 15">
       <r>  -52.0321    1.0000 </r>
       <r>  -52.0210    1.0000 </r>
       <r>  -28.6991    1.0000 </r>
       <r>  -28.6848    1.0000 </r>
       <r>  -28.4504    1.0000 </r>
       <r>  -28.4504    1.0000 </r>
       <r>  -28.3374    1.0000 </r>
       <r>  -28.3374    1.0000 </r>
       <r>  -15.8979    1.0000 </r>
       <r>  -15.4865    1.0000 </r>
       <r>  -15.4865    1.0000 </r>
       <r>  -15.4292    1.0000 </r>
       <r>   -0.0003    1.0000 </r>
       <r>    0.2721    1.0000 </r>
       <r>    0.5881    1.0000 </r>
       <r>    0.5881    1.0000 </r>
       <r>    0.7507    1.0000 </r>
       <r>    1.0040    1.0000 </r>
       <r>    1.5206    1.0000 </r>
       <r>    2.6808    1.0000 </r>
       <r>    2.6808    1.0000 </r>
       <r>    3.2158    1.0000 </r>
       <r>    3.2158    1.0000 </r>
       <r>    4.0198    1.0000 </r>
       <r>    6.9701    0.0000 </r>
       <r>    7.2580    0.0000 </r>
       <r>    7.8057    0.0000 </r>
       <r>    8.2434    0.0000 </r>
       <r>    8.2434    0.0000 </r>
       <r>    8.5071    0.0000 </r>
       <r>    9.8793    0.0000 </r>
       <r>   10.6580    0.0000 </r>
      </set>
      <set comment="kpoint 16">
       <r>  -52.0154    1.0000 </r>
       <r>  -52.0154    1.0000 </r>
       <r>  -28.8201    1.0000 </r>
       <r>  -28.8201    1.0000 </r>
       <r>  -28.3945    1.0000 </r>
       <r>  -28.3945    1.0000 </r>
       <r>  -28.3468    1.0000 </r>
       <r>  -28.3468    1.0000 </r>
       <r>  -15.6311    1.0000 </r>
       <r>  -15.6311    1.0000 </r>
       <r>  -15.4595    1.0000 </r>
       <r>  -15.4595    1.0000 </r>
       <r>    0.1020    1.0000 </r>
       <r>    0.1020    1.0000 </r>
       <r>    0.7008    1.0000 </r>
       <r>    0.7008    1.0000 </r>
       <r>    0.8597    1.0000 </r>
       <r>    0.8597    1.0000 </r>
       <r>    1.8607    1.0000 </r>
       <r>    1.8607    1.0000 </r>
       <r>    2.0392    1.0000 </r>
       <r>    2.0392    1.0000 </r>
       <r>    3.4311    1.0000 </r>
       <r>    3.4311    1.0000 </r>
       <r>    7.6071    0.0000 </r>
       <r>    7.6071    0.0000 </r>
       <r>    7.7867    0.0000 </r>
       <r>    7.7867    0.0000 </r>
       <r>    8.4809    0.0000 </r>
       <r>    8.4809    0.0000 </r>
       <r>   10.0255    0.0000 </r>
       <r>   10.0255    0.0000 </r>
      </set>
      <set comment="kpoint 17">
       <r>  -52.0154    1.0000 </r>
       <r>  -52.0154    1.0000 </r>
       <r>  -28.8201    1.0000 </r>
       <r>  -28.8201    1.0000 </r>
       <r>  -28.3945    1.0000 </r>
       <r>  -28.3945    1.0000 </r>
       <r>  -28.3468    1.0000 </r>
       <r>  -28.3468    1.0000 </r>
       <r>  -15.6311    1.0000 </r>
       <r>  -15.6311    1.0000 </r>
       <r>  -15.4595    1.0000 </r>
       <r>  -15.4595    1.0000 </r>
       <r>    0.1020    1.0000 </r>
       <r>    0.1020    1.0000 </r>
       <r>    0.7008    1.0000 </r>
       <r>    0.7008    1.0000 </r>
       <r>    0.8597    1.0000 </r>
       <r>    0.8597    1.0000 </r>
       <r>    1.8607    1.0000 </r>
       <r>    1.8607    1.0000 </r>
       <r>    2.0392    1.0000 </r>
       <r>    2.0392    1.0000 </r>
       <r>    3.4311    1.0000 </r>
       <r>    3.4311    1.0000 </r>
       <r>    7.6071    0.0000 </r>
       <r>    7.6071    0.0000 </r>
       <r>    7.7867    0.0000 </r>
       <r>    7.7867    0.0000 </r>
       <r>    8.4809    0.0000 </r>
       <r>    8.4809    0.0000 </r>
       <r>   10.0255    0.0000 </r>
       <r>   10.0255    0.0000 </r>
      </set>
      <set comment="kpoint 18">
       <r>  -52.0153    1.0000 </r>
       <r>  -52.0153    1.0000 </r>
       <r>  -28.8253    1.0000 </r>
       <r>  -28.8253    1.0000 </r>
       <r>  -28.3883    1.0000 </r>
       <r>  -28.3883    1.0000 </r>
       <r>  -28.3465    1.0000 </r>
       <r>  -28.3465    1.0000 </r>
       <r>  -15.7459    1.0000 </r>
       <r>  -15.7459    1.0000 </r>
       <r>  -15.3384    1.0000 </r>
       <r>  -15.3384    1.0000 </r>
       <r>   -0.1419    1.0000 </r>
       <r>   -0.1419    1.0000 </r>
       <r>    0.5241    1.0000 </r>
       <r>    0.5241    1.0000 </r>
       <r>    1.1783    1.0000 </r>
       <r>    1.1783    1.0000 </r>
       <r>    1.9160    1.0000 </r>
       <r>    1.9160    1.0000 </r>
       <r>    2.6129    1.0000 </r>
       <r>    2.6129    1.0000 </r>
       <r>    3.2346    1.0000 </r>
       <r>    3.2346    1.0000 </r>
       <r>    7.3752    0.0000 </r>
       <r>    7.3752    0.0000 </r>
       <r>    7.7876    0.0000 </r>
       <r>    7.7876    0.0000 </r>
       <r>    8.5662    0.0000 </r>
       <r>    8.5662    0.0000 </r>
       <r>    9.6997    0.0000 </r>
       <r>    9.6997    0.0000 </r>
      </set>
      <set comment="kpoint 19">
       <r>  -52.0154    1.0000 </r>
       <r>  -52.0154    1.0000 </r>
       <r>  -28.8366    1.0000 </r>
       <r>  -28.8366    1.0000 </r>
       <r>  -28.3780    1.0000 </r>
       <r>  -28.3780    1.0000 </r>
       <r>  -28.3462    1.0000 </r>
       <r>  -28.3462    1.0000 </r>
       <r>  -15.8735    1.0000 </r>
       <r>  -15.8735    1.0000 </r>
       <r>  -15.2038    1.0000 </r>
       <r>  -15.2038    1.0000 </r>
       <r>   -0.5360    1.0000 </r>
       <r>   -0.5360    1.0000 </r>
       <r>    0.5846    1.0000 </r>
       <r>    0.5846    1.0000 </r>
       <r>    1.2375    1.0000 </r>
       <r>    1.2375    1.0000 </r>
       <r>    2.0873    1.0000 </r>
       <r>    2.0873    1.0000 </r>
       <r>    2.8680    1.0000 </r>
       <r>    2.8680    1.0000 </r>
       <r>    3.3726    1.0000 </r>
       <r>    3.3726    1.0000 </r>
       <r>    6.7773    0.0000 </r>
       <r>    6.7773    0.0000 </r>
       <r>    7.8010    0.0000 </r>
       <r>    7.8010    0.0000 </r>
       <r>    8.6653    0.0000 </r>
       <r>    8.6653    0.0000 </r>
       <r>    9.3752    0.0000 </r>
       <r>    9.3752    0.0000 </r>
      </set>
      <set comment="kpoint 20">
       <r>  -52.0152    1.0000 </r>
       <r>  -52.0152    1.0000 </r>
       <r>  -28.8413    1.0000 </r>
       <r>  -28.8413    1.0000 </r>
       <r>  -28.3722    1.0000 </r>
       <r>  -28.3722    1.0000 </r>
       <r>  -28.3453    1.0000 </r>
       <r>  -28.3453    1.0000 </r>
       <r>  -15.9146    1.0000 </r>
       <r>  -15.9146    1.0000 </r>
       <r>  -15.1500    1.0000 </r>
       <r>  -15.1500    1.0000 </r>
       <r>   -0.6182    1.0000 </r>
       <r>   -0.6182    1.0000 </r>
       <r>    0.7120    1.0000 </r>
       <r>    0.7120    1.0000 </r>
       <r>    1.2607    1.0000 </r>
       <r>    1.2607    1.0000 </r>
       <r>    2.4360    1.0000 </r>
       <r>    2.4360    1.0000 </r>
       <r>    2.6922    1.0000 </r>
       <r>    2.6922    1.0000 </r>
       <r>    3.9999    1.0000 </r>
       <r>    3.9999    1.0000 </r>
       <r>    6.4207    0.0000 </r>
       <r>    6.4207    0.0000 </r>
       <r>    7.8106    0.0000 </r>
       <r>    7.8106    0.0000 </r>
       <r>    8.7325    0.0000 </r>
       <r>    8.7325    0.0000 </r>
       <r>    9.2838    0.0000 </r>
       <r>    9.2838    0.0000 </r>
      </set>
      <set comment="kpoint 21">
       <r>  -52.0152    1.0000 </r>
       <r>  -52.0152    1.0000 </r>
       <r>  -28.8413    1.0000 </r>
       <r>  -28.8413    1.0000 </r>
       <r>  -28.3722    1.0000 </r>
       <r>  -28.3722    1.0000 </r>
       <r>  -28.3453    1.0000 </r>
       <r>  -28.3453    1.0000 </r>
       <r>  -15.9146    1.0000 </r>
       <r>  -15.9146    1.0000 </r>
       <r>  -15.1500    1.0000 </r>
       <r>  -15.1500    1.0000 </r>
       <r>   -0.6182    1.0000 </r>
       <r>   -0.6182    1.0000 </r>
       <r>    0.7120    1.0000 </r>
       <r>    0.7120    1.0000 </r>
       <r>    1.2607    1.0000 </r>
       <r>    1.2607    1.0000 </r>
       <r>    2.4360    1.0000 </r>
       <r>    2.4360    1.0000 </r>
       <r>    2.6922    1.0000 </r>
       <r>    2.6922    1.0000 </r>
       <r>    3.9999    1.0000 </r>
       <r>    3.9999    1.0000 </r>
       <r>    6.4207    0.0000 </r>
       <r>    6.4207    0.0000 </r>
       <r>    7.8106    0.0000 </r>
       <r>    7.8106    0.0000 </r>
       <r>    8.7325    0.0000 </r>
       <r>    8.7325    0.0000 </r>
       <r>    9.2838    0.0000 </r>
       <r>    9.2838    0.0000 </r>
      </set>
      <set comment="kpoint 22">
       <r>  -52.0152    1.0000 </r>
       <r>  -52.0152    1.0000 </r>
       <r>  -28.8360    1.0000 </r>
       <r>  -28.8360    1.0000 </r>
       <r>  -28.3782    1.0000 </r>
       <r>  -28.3782    1.0000 </r>
       <r>  -28.3464    1.0000 </r>
       <r>  -28.3464    1.0000 </r>
       <r>  -15.8771    1.0000 </r>
       <r>  -15.8771    1.0000 </r>
       <r>  -15.1951    1.0000 </r>
       <r>  -15.1951    1.0000 </r>
       <r>   -0.6286    1.0000 </r>
       <r>   -0.6286    1.0000 </r>
       <r>    0.4795    1.0000 </r>
       <r>    0.4795    1.0000 </r>
       <r>    1.1837    1.0000 </r>
       <r>    1.1837    1.0000 </r>
       <r>    2.1038    1.0000 </r>
       <r>    2.1038    1.0000 </r>
       <r>    2.9734    1.0000 </r>
       <r>    2.9734    1.0000 </r>
       <r>    3.9735    1.0000 </r>
       <r>    3.9735    1.0000 </r>
       <r>    6.5550    0.0000 </r>
       <r>    6.5550    0.0000 </r>
       <r>    7.8149    0.0000 </r>
       <r>    7.8149    0.0000 </r>
       <r>    8.5920    0.0000 </r>
       <r>    8.5920    0.0000 </r>
       <r>    9.4324    0.0000 </r>
       <r>    9.4324    0.0000 </r>
      </set>
      <set comment="kpoint 23">
       <r>  -52.0151    1.0000 </r>
       <r>  -52.0151    1.0000 </r>
       <r>  -28.8246    1.0000 </r>
       <r>  -28.8246    1.0000 </r>
       <r>  -28.3905    1.0000 </r>
       <r>  -28.3905    1.0000 </r>
       <r>  -28.3474    1.0000 </r>
       <r>  -28.3474    1.0000 </r>
       <r>  -15.7691    1.0000 </r>
       <r>  -15.7691    1.0000 </r>
       <r>  -15.2969    1.0000 </r>
       <r>  -15.2969    1.0000 </r>
       <r>   -0.4759    1.0000 </r>
       <r>   -0.4759    1.0000 </r>
       <r>    0.1772    1.0000 </r>
       <r>    0.1772    1.0000 </r>
       <r>    1.2713    1.0000 </r>
       <r>    1.2713    1.0000 </r>
       <r>    2.0612    1.0000 </r>
       <r>    2.0612    1.0000 </r>
       <r>    3.3464    1.0000 </r>
       <r>    3.3464    1.0000 </r>
       <r>    4.3062    1.0000 </r>
       <r>    4.3062    1.0000 </r>
       <r>    6.9172    0.0000 </r>
       <r>    6.9172    0.0000 </r>
       <r>    7.8337    0.0000 </r>
       <r>    7.8337    0.0000 </r>
       <r>    8.2424    0.0000 </r>
       <r>    8.2424    0.0000 </r>
       <r>    9.9204    0.0000 </r>
       <r>    9.9204    0.0000 </r>
      </set>
      <set comment="kpoint 24">
       <r>  -52.0153    1.0000 </r>
       <r>  -52.0153    1.0000 </r>
       <r>  -28.8187    1.0000 </r>
       <r>  -28.8187    1.0000 </r>
       <r>  -28.3974    1.0000 </r>
       <r>  -28.3974    1.0000 </r>
       <r>  -28.3480    1.0000 </r>
       <r>  -28.3480    1.0000 </r>
       <r>  -15.6927    1.0000 </r>
       <r>  -15.6927    1.0000 </r>
       <r>  -15.3838    1.0000 </r>
       <r>  -15.3838    1.0000 </r>
       <r>   -0.4744    1.0000 </r>
       <r>   -0.4744    1.0000 </r>
       <r>   -0.1925    1.0000 </r>
       <r>   -0.1925    1.0000 </r>
       <r>    1.2057    1.0000 </r>
       <r>    1.2057    1.0000 </r>
       <r>    1.8649    1.0000 </r>
       <r>    1.8649    1.0000 </r>
       <r>    3.4982    1.0000 </r>
       <r>    3.4982    1.0000 </r>
       <r>    4.2026    1.0000 </r>
       <r>    4.2026    1.0000 </r>
       <r>    7.2314    0.0000 </r>
       <r>    7.2314    0.0000 </r>
       <r>    7.8262    0.0000 </r>
       <r>    7.8262    0.0000 </r>
       <r>    7.8716    0.0000 </r>
       <r>    7.8716    0.0000 </r>
       <r>   10.5163    0.0000 </r>
       <r>   10.5450    0.0000 </r>
      </set>
      <set comment="kpoint 25">
       <r>  -52.0153    1.0000 </r>
       <r>  -52.0153    1.0000 </r>
       <r>  -28.8187    1.0000 </r>
       <r>  -28.8187    1.0000 </r>
       <r>  -28.3974    1.0000 </r>
       <r>  -28.3974    1.0000 </r>
       <r>  -28.3480    1.0000 </r>
       <r>  -28.3480    1.0000 </r>
       <r>  -15.6927    1.0000 </r>
       <r>  -15.6927    1.0000 </r>
       <r>  -15.3838    1.0000 </r>
       <r>  -15.3838    1.0000 </r>
       <r>   -0.4744    1.0000 </r>
       <r>   -0.4744    1.0000 </r>
       <r>   -0.1925    1.0000 </r>
       <r>   -0.1925    1.0000 </r>
       <r>    1.2057    1.0000 </r>
       <r>    1.2057    1.0000 </r>
       <r>    1.8649    1.0000 </r>
       <r>    1.8649    1.0000 </r>
       <r>    3.4982    1.0000 </r>
       <r>    3.4982    1.0000 </r>
       <r>    4.2026    1.0000 </r>
       <r>    4.2026    1.0000 </r>
       <r>    7.2314    0.0000 </r>
       <r>    7.2314    0.0000 </r>
       <r>    7.8262    0.0000 </r>
       <r>    7.8262    0.0000 </r>
       <r>    7.8716    0.0000 </r>
       <r>    7.8716    0.0000 </r>
       <r>   10.5162    0.0000 </r>
       <r>   10.5166    0.0000 </r>
      </set>
      <set comment="kpoint 26">
       <r>  -52.0152    1.0000 </r>
       <r>  -52.0151    1.0000 </r>
       <r>  -28.8346    1.0000 </r>
       <r>  -28.8197    1.0000 </r>
       <r>  -28.3966    1.0000 </r>
       <r>  -28.3785    1.0000 </r>
       <r>  -28.3474    1.0000 </r>
       <r>  -28.3465    1.0000 </r>
       <r>  -15.8775    1.0000 </r>
       <r>  -15.6753    1.0000 </r>
       <r>  -15.3950    1.0000 </r>
       <r>  -15.1854    1.0000 </r>
       <r>   -0.6464    1.0000 </r>
       <r>   -0.1905    1.0000 </r>
       <r>    0.1009    1.0000 </r>
       <r>    0.4097    1.0000 </r>
       <r>    0.9265    1.0000 </r>
       <r>    1.6838    1.0000 </r>
       <r>    1.9933    1.0000 </r>
       <r>    2.1649    1.0000 </r>
       <r>    3.1007    1.0000 </r>
       <r>    3.4607    1.0000 </r>
       <r>    3.8824    1.0000 </r>
       <r>    4.1852    1.0000 </r>
       <r>    6.6264    0.0000 </r>
       <r>    7.3219    0.0000 </r>
       <r>    7.8202    0.0000 </r>
       <r>    7.8244    0.0000 </r>
       <r>    7.9513    0.0000 </r>
       <r>    8.6354    0.0000 </r>
       <r>    9.3988    0.0000 </r>
       <r>   10.6050    0.0000 </r>
      </set>
      <set comment="kpoint 27">
       <r>  -52.0153    1.0000 </r>
       <r>  -52.0153    1.0000 </r>
       <r>  -28.8346    1.0000 </r>
       <r>  -28.8208    1.0000 </r>
       <r>  -28.3951    1.0000 </r>
       <r>  -28.3769    1.0000 </r>
       <r>  -28.3472    1.0000 </r>
       <r>  -28.3455    1.0000 </r>
       <r>  -15.8704    1.0000 </r>
       <r>  -15.6401    1.0000 </r>
       <r>  -15.4409    1.0000 </r>
       <r>  -15.2045    1.0000 </r>
       <r>   -0.4271    1.0000 </r>
       <r>    0.1883    1.0000 </r>
       <r>    0.2175    1.0000 </r>
       <r>    0.4217    1.0000 </r>
       <r>    0.7899    1.0000 </r>
       <r>    1.8025    1.0000 </r>
       <r>    2.1281    1.0000 </r>
       <r>    2.2182    1.0000 </r>
       <r>    2.7009    1.0000 </r>
       <r>    2.9445    1.0000 </r>
       <r>    2.9605    1.0000 </r>
       <r>    3.3862    1.0000 </r>
       <r>    7.0117    0.0000 </r>
       <r>    7.6097    0.0000 </r>
       <r>    7.7939    0.0000 </r>
       <r>    7.8036    0.0000 </r>
       <r>    8.2203    0.0000 </r>
       <r>    8.7919    0.0000 </r>
       <r>    9.2523    0.0000 </r>
       <r>   10.3588    0.0000 </r>
      </set>
      <set comment="kpoint 28">
       <r>  -52.0154    1.0000 </r>
       <r>  -52.0154    1.0000 </r>
       <r>  -28.8201    1.0000 </r>
       <r>  -28.8201    1.0000 </r>
       <r>  -28.3945    1.0000 </r>
       <r>  -28.3945    1.0000 </r>
       <r>  -28.3468    1.0000 </r>
       <r>  -28.3468    1.0000 </r>
       <r>  -15.6311    1.0000 </r>
       <r>  -15.6311    1.0000 </r>
       <r>  -15.4595    1.0000 </r>
       <r>  -15.4595    1.0000 </r>
       <r>    0.1020    1.0000 </r>
       <r>    0.1020    1.0000 </r>
       <r>    0.7008    1.0000 </r>
       <r>    0.7008    1.0000 </r>
       <r>    0.8597    1.0000 </r>
       <r>    0.8597    1.0000 </r>
       <r>    1.8607    1.0000 </r>
       <r>    1.8607    1.0000 </r>
       <r>    2.0392    1.0000 </r>
       <r>    2.0392    1.0000 </r>
       <r>    3.4311    1.0000 </r>
       <r>    3.4311    1.0000 </r>
       <r>    7.6071    0.0000 </r>
       <r>    7.6071    0.0000 </r>
       <r>    7.7867    0.0000 </r>
       <r>    7.7867    0.0000 </r>
       <r>    8.4809    0.0000 </r>
       <r>    8.4809    0.0000 </r>
       <r>   10.0255    0.0000 </r>
       <r>   10.0255    0.0000 </r>
      </set>
      <set comment="kpoint 29">
       <r>  -52.0602    1.0000 </r>
       <r>  -52.0602    1.0000 </r>
       <r>  -28.5018    1.0000 </r>
       <r>  -28.5018    1.0000 </r>
       <r>  -28.4324    1.0000 </r>
       <r>  -28.4324    1.0000 </r>
       <r>  -28.2896    1.0000 </r>
       <r>  -28.2896    1.0000 </r>
       <r>  -16.0895    1.0000 </r>
       <r>  -16.0895    1.0000 </r>
       <r>  -15.3384    1.0000 </r>
       <r>  -15.3384    1.0000 </r>
       <r>   -0.4760    1.0000 </r>
       <r>   -0.4760    1.0000 </r>
       <r>    0.9201    1.0000 </r>
       <r>    0.9201    1.0000 </r>
       <r>    1.1768    1.0000 </r>
       <r>    1.1768    1.0000 </r>
       <r>    1.4979    1.0000 </r>
       <r>    1.4979    1.0000 </r>
       <r>    3.1539    1.0000 </r>
       <r>    3.1539    1.0000 </r>
       <r>    4.2129    1.0000 </r>
       <r>    4.2129    1.0000 </r>
       <r>    7.1704    0.0000 </r>
       <r>    7.1704    0.0000 </r>
       <r>    7.6707    0.0000 </r>
       <r>    7.6707    0.0000 </r>
       <r>    8.2431    0.0000 </r>
       <r>    8.2431    0.0000 </r>
       <r>   10.9171    0.0000 </r>
       <r>   10.9171    0.0000 </r>
      </set>
      <set comment="kpoint 30">
       <r>  -52.0490    1.0000 </r>
       <r>  -52.0490    1.0000 </r>
       <r>  -28.4839    1.0000 </r>
       <r>  -28.4839    1.0000 </r>
       <r>  -28.4581    1.0000 </r>
       <r>  -28.4581    1.0000 </r>
       <r>  -28.3709    1.0000 </r>
       <r>  -28.3709    1.0000 </r>
       <r>  -15.9010    1.0000 </r>
       <r>  -15.9010    1.0000 </r>
       <r>  -15.4328    1.0000 </r>
       <r>  -15.4328    1.0000 </r>
       <r>   -0.1528    1.0000 </r>
       <r>   -0.1528    1.0000 </r>
       <r>    0.4858    1.0000 </r>
       <r>    0.4858    1.0000 </r>
       <r>    1.2506    1.0000 </r>
       <r>    1.2506    1.0000 </r>
       <r>    1.8945    1.0000 </r>
       <r>    1.8945    1.0000 </r>
       <r>    2.6846    1.0000 </r>
       <r>    2.6846    1.0000 </r>
       <r>    4.3603    1.0000 </r>
       <r>    4.3603    1.0000 </r>
       <r>    7.3297    0.0000 </r>
       <r>    7.3297    0.0000 </r>
       <r>    7.8988    0.0000 </r>
       <r>    7.8988    0.0000 </r>
       <r>    8.2189    0.0000 </r>
       <r>    8.2189    0.0000 </r>
       <r>   10.1371    0.0000 </r>
       <r>   10.1371    0.0000 </r>
      </set>
      <set comment="kpoint 31">
       <r>  -52.0265    1.0000 </r>
       <r>  -52.0265    1.0000 </r>
       <r>  -28.7165    1.0000 </r>
       <r>  -28.7165    1.0000 </r>
       <r>  -28.3871    1.0000 </r>
       <r>  -28.3871    1.0000 </r>
       <r>  -28.3766    1.0000 </r>
       <r>  -28.3766    1.0000 </r>
       <r>  -15.8165    1.0000 </r>
       <r>  -15.8165    1.0000 </r>
       <r>  -15.3373    1.0000 </r>
       <r>  -15.3373    1.0000 </r>
       <r>   -0.1851    1.0000 </r>
       <r>   -0.1851    1.0000 </r>
       <r>    0.3655    1.0000 </r>
       <r>    0.3655    1.0000 </r>
       <r>    1.2736    1.0000 </r>
       <r>    1.2736    1.0000 </r>
       <r>    1.8972    1.0000 </r>
       <r>    1.8972    1.0000 </r>
       <r>    3.0934    1.0000 </r>
       <r>    3.0934    1.0000 </r>
       <r>    4.0062    1.0000 </r>
       <r>    4.0062    1.0000 </r>
       <r>    6.8718    0.0000 </r>
       <r>    6.8718    0.0000 </r>
       <r>    7.9751    0.0000 </r>
       <r>    7.9751    0.0000 </r>
       <r>    8.5438    0.0000 </r>
       <r>    8.5438    0.0000 </r>
       <r>    9.3200    0.0000 </r>
       <r>    9.3200    0.0000 </r>
      </set>
      <set comment="kpoint 32">
       <r>  -52.0152    1.0000 </r>
       <r>  -52.0152    1.0000 </r>
       <r>  -28.8413    1.0000 </r>
       <r>  -28.8413    1.0000 </r>
       <r>  -28.3722    1.0000 </r>
       <r>  -28.3722    1.0000 </r>
       <r>  -28.3453    1.0000 </r>
       <r>  -28.3453    1.0000 </r>
       <r>  -15.9146    1.0000 </r>
       <r>  -15.9146    1.0000 </r>
       <r>  -15.1500    1.0000 </r>
       <r>  -15.1500    1.0000 </r>
       <r>   -0.6182    1.0000 </r>
       <r>   -0.6182    1.0000 </r>
       <r>    0.7120    1.0000 </r>
       <r>    0.7120    1.0000 </r>
       <r>    1.2607    1.0000 </r>
       <r>    1.2607    1.0000 </r>
       <r>    2.4360    1.0000 </r>
       <r>    2.4360    1.0000 </r>
       <r>    2.6922    1.0000 </r>
       <r>    2.6922    1.0000 </r>
       <r>    3.9999    1.0000 </r>
       <r>    3.9999    1.0000 </r>
       <r>    6.4207    0.0000 </r>
       <r>    6.4207    0.0000 </r>
       <r>    7.8106    0.0000 </r>
       <r>    7.8106    0.0000 </r>
       <r>    8.7325    0.0000 </r>
       <r>    8.7325    0.0000 </r>
       <r>    9.2838    0.0000 </r>
       <r>    9.2838    0.0000 </r>
      </set>
      <set comment="kpoint 33">
       <r>  -52.0600    1.0000 </r>
       <r>  -52.0600    1.0000 </r>
       <r>  -28.5930    1.0000 </r>
       <r>  -28.5930    1.0000 </r>
       <r>  -28.3387    1.0000 </r>
       <r>  -28.3387    1.0000 </r>
       <r>  -28.2886    1.0000 </r>
       <r>  -28.2886    1.0000 </r>
       <r>  -16.2095    1.0000 </r>
       <r>  -16.2095    1.0000 </r>
       <r>  -15.1686    1.0000 </r>
       <r>  -15.1686    1.0000 </r>
       <r>   -0.8044    1.0000 </r>
       <r>   -0.8044    1.0000 </r>
       <r>    0.7837    1.0000 </r>
       <r>    0.7837    1.0000 </r>
       <r>    1.7821    1.0000 </r>
       <r>    1.7821    1.0000 </r>
       <r>    2.7341    1.0000 </r>
       <r>    2.7341    1.0000 </r>
       <r>    3.9204    1.0000 </r>
       <r>    3.9204    1.0000 </r>
       <r>    4.2540    1.0000 </r>
       <r>    4.2540    1.0000 </r>
       <r>    6.4588    0.0000 </r>
       <r>    6.4588    0.0000 </r>
       <r>    7.0578    0.0000 </r>
       <r>    7.0578    0.0000 </r>
       <r>    8.8327    0.0000 </r>
       <r>    8.8327    0.0000 </r>
       <r>   10.2776    0.0000 </r>
       <r>   10.2776    0.0000 </r>
      </set>
      <set comment="kpoint 34">
       <r>  -52.0488    1.0000 </r>
       <r>  -52.0488    1.0000 </r>
       <r>  -28.5510    1.0000 </r>
       <r>  -28.5510    1.0000 </r>
       <r>  -28.4267    1.0000 </r>
       <r>  -28.4267    1.0000 </r>
       <r>  -28.3350    1.0000 </r>
       <r>  -28.3350    1.0000 </r>
       <r>  -16.0068    1.0000 </r>
       <r>  -16.0068    1.0000 </r>
       <r>  -15.3028    1.0000 </r>
       <r>  -15.3028    1.0000 </r>
       <r>   -0.5506    1.0000 </r>
       <r>   -0.5506    1.0000 </r>
       <r>    0.1179    1.0000 </r>
       <r>    0.1179    1.0000 </r>
       <r>    2.5680    1.0000 </r>
       <r>    2.5680    1.0000 </r>
       <r>    2.7440    1.0000 </r>
       <r>    2.7440    1.0000 </r>
       <r>    2.7476    1.0000 </r>
       <r>    2.7476    1.0000 </r>
       <r>    3.5029    1.0000 </r>
       <r>    3.5029    1.0000 </r>
       <r>    6.9441    0.0000 </r>
       <r>    6.9441    0.0000 </r>
       <r>    7.3120    0.0000 </r>
       <r>    7.3120    0.0000 </r>
       <r>    8.4039    0.0000 </r>
       <r>    8.4039    0.0000 </r>
       <r>   10.5955    0.0000 </r>
       <r>   10.5956    0.0000 </r>
      </set>
      <set comment="kpoint 35">
       <r>  -52.0264    1.0000 </r>
       <r>  -52.0264    1.0000 </r>
       <r>  -28.6913    1.0000 </r>
       <r>  -28.6913    1.0000 </r>
       <r>  -28.4587    1.0000 </r>
       <r>  -28.4587    1.0000 </r>
       <r>  -28.3337    1.0000 </r>
       <r>  -28.3337    1.0000 </r>
       <r>  -15.5891    1.0000 </r>
       <r>  -15.5891    1.0000 </r>
       <r>  -15.5622    1.0000 </r>
       <r>  -15.5622    1.0000 </r>
       <r>   -0.3689    1.0000 </r>
       <r>   -0.3689    1.0000 </r>
       <r>   -0.0509    1.0000 </r>
       <r>   -0.0509    1.0000 </r>
       <r>    1.3740    1.0000 </r>
       <r>    1.3740    1.0000 </r>
       <r>    2.5192    1.0000 </r>
       <r>    2.5192    1.0000 </r>
       <r>    3.2514    1.0000 </r>
       <r>    3.2514    1.0000 </r>
       <r>    3.9050    1.0000 </r>
       <r>    3.9050    1.0000 </r>
       <r>    7.5537    0.0000 </r>
       <r>    7.5537    0.0000 </r>
       <r>    7.6819    0.0000 </r>
       <r>    7.6819    0.0000 </r>
       <r>    7.7242    0.0000 </r>
       <r>    7.7242    0.0000 </r>
       <r>   10.6266    0.0000 </r>
       <r>   10.6268    0.0000 </r>
      </set>
      <set comment="kpoint 36">
       <r>  -52.0153    1.0000 </r>
       <r>  -52.0153    1.0000 </r>
       <r>  -28.8187    1.0000 </r>
       <r>  -28.8187    1.0000 </r>
       <r>  -28.3974    1.0000 </r>
       <r>  -28.3974    1.0000 </r>
       <r>  -28.3480    1.0000 </r>
       <r>  -28.3480    1.0000 </r>
       <r>  -15.6927    1.0000 </r>
       <r>  -15.6927    1.0000 </r>
       <r>  -15.3838    1.0000 </r>
       <r>  -15.3838    1.0000 </r>
       <r>   -0.4744    1.0000 </r>
       <r>   -0.4744    1.0000 </r>
       <r>   -0.1925    1.0000 </r>
       <r>   -0.1925    1.0000 </r>
       <r>    1.2057    1.0000 </r>
       <r>    1.2057    1.0000 </r>
       <r>    1.8649    1.0000 </r>
       <r>    1.8649    1.0000 </r>
       <r>    3.4982    1.0000 </r>
       <r>    3.4982    1.0000 </r>
       <r>    4.2026    1.0000 </r>
       <r>    4.2026    1.0000 </r>
       <r>    7.2314    0.0000 </r>
       <r>    7.2314    0.0000 </r>
       <r>    7.8262    0.0000 </r>
       <r>    7.8262    0.0000 </r>
       <r>    7.8716    0.0000 </r>
       <r>    7.8716    0.0000 </r>
       <r>   10.5161    0.0000 </r>
       <r>   10.5191    0.0000 </r>
      </set>
     </set>
    </set>
   </array>
  </eigenvalues>
  <separator name="orbital magnetization" >
   <v name="MAGDIPOLOUT">      0.00000000      0.00000000      0.00000000</v>
  </separator>
  <dos>
   <i name="efermi">      5.80585964 </i>
   <total>
    <array>
     <dimension dim="1">gridpoints</dimension>
     <dimension dim="2">spin</dimension>
     <field>energy</field>
     <field>total</field>
     <field>integrated</field>
     <set>
      <set comment="spin 1">
       <r>   -55.2514     0.0000     0.0000 </r>
       <r>   -55.0181     0.0000     0.0000 </r>
       <r>   -54.7849     0.0000     0.0000 </r>
       <r>   -54.5517     0.0000     0.0000 </r>
       <r>   -54.3185     0.0000     0.0000 </r>
       <r>   -54.0852     0.0000     0.0000 </r>
       <r>   -53.8520     0.0000     0.0000 </r>
       <r>   -53.6188     0.0000     0.0000 </r>
       <r>   -53.3855     0.0000     0.0000 </r>
       <r>   -53.1523     0.0000     0.0000 </r>
       <r>   -52.9191     0.0000     0.0000 </r>
       <r>   -52.6858     0.0000     0.0000 </r>
       <r>   -52.4526     0.0319     0.0074 </r>
       <r>   -52.2194     1.7186     0.4083 </r>
       <r>   -51.9862     9.2389     2.5631 </r>
       <r>   -51.7529     5.7629     3.9071 </r>
       <r>   -51.5197     0.3957     3.9994 </r>
       <r>   -51.2865     0.0025     4.0000 </r>
       <r>   -51.0532     0.0000     4.0000 </r>
       <r>   -50.8200     0.0000     4.0000 </r>
       <r>   -50.5868     0.0000     4.0000 </r>
       <r>   -50.3536     0.0000     4.0000 </r>
       <r>   -50.1203     0.0000     4.0000 </r>
       <r>   -49.8871     0.0000     4.0000 </r>
       <r>   -49.6539     0.0000     4.0000 </r>
       <r>   -49.4206     0.0000     4.0000 </r>
       <r>   -49.1874     0.0000     4.0000 </r>
       <r>   -48.9542     0.0000     4.0000 </r>
       <r>   -48.7209     0.0000     4.0000 </r>
       <r>   -48.4877     0.0000     4.0000 </r>
       <r>   -48.2545     0.0000     4.0000 </r>
       <r>   -48.0213     0.0000     4.0000 </r>
       <r>   -47.7880     0.0000     4.0000 </r>
       <r>   -47.5548     0.0000     4.0000 </r>
       <r>   -47.3216     0.0000     4.0000 </r>
       <r>   -47.0883     0.0000     4.0000 </r>
       <r>   -46.8551     0.0000     4.0000 </r>
       <r>   -46.6219     0.0000     4.0000 </r>
       <r>   -46.3887     0.0000     4.0000 </r>
       <r>   -46.1554     0.0000     4.0000 </r>
       <r>   -45.9222     0.0000     4.0000 </r>
       <r>   -45.6890     0.0000     4.0000 </r>
       <r>   -45.4557     0.0000     4.0000 </r>
       <r>   -45.2225     0.0000     4.0000 </r>
       <r>   -44.9893     0.0000     4.0000 </r>
       <r>   -44.7560     0.0000     4.0000 </r>
       <r>   -44.5228     0.0000     4.0000 </r>
       <r>   -44.2896     0.0000     4.0000 </r>
       <r>   -44.0564     0.0000     4.0000 </r>
       <r>   -43.8231     0.0000     4.0000 </r>
       <r>   -43.5899     0.0000     4.0000 </r>
       <r>   -43.3567     0.0000     4.0000 </r>
       <r>   -43.1234     0.0000     4.0000 </r>
       <r>   -42.8902     0.0000     4.0000 </r>
       <r>   -42.6570     0.0000     4.0000 </r>
       <r>   -42.4238     0.0000     4.0000 </r>
       <r>   -42.1905     0.0000     4.0000 </r>
       <r>   -41.9573     0.0000     4.0000 </r>
       <r>   -41.7241     0.0000     4.0000 </r>
       <r>   -41.4908     0.0000     4.0000 </r>
       <r>   -41.2576     0.0000     4.0000 </r>
       <r>   -41.0244     0.0000     4.0000 </r>
       <r>   -40.7911     0.0000     4.0000 </r>
       <r>   -40.5579     0.0000     4.0000 </r>
       <r>   -40.3247     0.0000     4.0000 </r>
       <r>   -40.0915     0.0000     4.0000 </r>
       <r>   -39.8582     0.0000     4.0000 </r>
       <r>   -39.6250     0.0000     4.0000 </r>
       <r>   -39.3918     0.0000     4.0000 </r>
       <r>   -39.1585     0.0000     4.0000 </r>
       <r>   -38.9253     0.0000     4.0000 </r>
       <r>   -38.6921     0.0000     4.0000 </r>
       <r>   -38.4589     0.0000     4.0000 </r>
       <r>   -38.2256     0.0000     4.0000 </r>
       <r>   -37.9924     0.0000     4.0000 </r>
       <r>   -37.7592     0.0000     4.0000 </r>
       <r>   -37.5259     0.0000     4.0000 </r>
       <r>   -37.2927     0.0000     4.0000 </r>
       <r>   -37.0595     0.0000     4.0000 </r>
       <r>   -36.8262     0.0000     4.0000 </r>
       <r>   -36.5930     0.0000     4.0000 </r>
       <r>   -36.3598     0.0000     4.0000 </r>
       <r>   -36.1266     0.0000     4.0000 </r>
       <r>   -35.8933     0.0000     4.0000 </r>
       <r>   -35.6601     0.0000     4.0000 </r>
       <r>   -35.4269     0.0000     4.0000 </r>
       <r>   -35.1936     0.0000     4.0000 </r>
       <r>   -34.9604     0.0000     4.0000 </r>
       <r>   -34.7272     0.0000     4.0000 </r>
       <r>   -34.4940     0.0000     4.0000 </r>
       <r>   -34.2607     0.0000     4.0000 </r>
       <r>   -34.0275     0.0000     4.0000 </r>
       <r>   -33.7943     0.0000     4.0000 </r>
       <r>   -33.5610     0.0000     4.0000 </r>
       <r>   -33.3278     0.0000     4.0000 </r>
       <r>   -33.0946     0.0000     4.0000 </r>
       <r>   -32.8613     0.0000     4.0000 </r>
       <r>   -32.6281     0.0000     4.0000 </r>
       <r>   -32.3949     0.0000     4.0000 </r>
       <r>   -32.1617     0.0000     4.0000 </r>
       <r>   -31.9284     0.0000     4.0000 </r>
       <r>   -31.6952     0.0000     4.0000 </r>
       <r>   -31.4620     0.0000     4.0000 </r>
       <r>   -31.2287     0.0000     4.0000 </r>
       <r>   -30.9955     0.0000     4.0000 </r>
       <r>   -30.7623     0.0000     4.0000 </r>
       <r>   -30.5291     0.0000     4.0000 </r>
       <r>   -30.2958     0.0000     4.0000 </r>
       <r>   -30.0626     0.0000     4.0000 </r>
       <r>   -29.8294     0.0000     4.0000 </r>
       <r>   -29.5961     0.0000     4.0000 </r>
       <r>   -29.3629     0.0006     4.0001 </r>
       <r>   -29.1297     0.1201     4.0281 </r>
       <r>   -28.8964     2.3245     4.5703 </r>
       <r>   -28.6632     7.2678     6.2654 </r>
       <r>   -28.4300    16.2971    10.0663 </r>
       <r>   -28.1968    20.5219    14.8526 </r>
       <r>   -27.9635     4.7800    15.9675 </r>
       <r>   -27.7303     0.1391    15.9999 </r>
       <r>   -27.4971     0.0004    16.0000 </r>
       <r>   -27.2638     0.0000    16.0000 </r>
       <r>   -27.0306     0.0000    16.0000 </r>
       <r>   -26.7974     0.0000    16.0000 </r>
       <r>   -26.5642     0.0000    16.0000 </r>
       <r>   -26.3309     0.0000    16.0000 </r>
       <r>   -26.0977     0.0000    16.0000 </r>
       <r>   -25.8645     0.0000    16.0000 </r>
       <r>   -25.6312     0.0000    16.0000 </r>
       <r>   -25.3980     0.0000    16.0000 </r>
       <r>   -25.1648     0.0000    16.0000 </r>
       <r>   -24.9315     0.0000    16.0000 </r>
       <r>   -24.6983     0.0000    16.0000 </r>
       <r>   -24.4651     0.0000    16.0000 </r>
       <r>   -24.2319     0.0000    16.0000 </r>
       <r>   -23.9986     0.0000    16.0000 </r>
       <r>   -23.7654     0.0000    16.0000 </r>
       <r>   -23.5322     0.0000    16.0000 </r>
       <r>   -23.2989     0.0000    16.0000 </r>
       <r>   -23.0657     0.0000    16.0000 </r>
       <r>   -22.8325     0.0000    16.0000 </r>
       <r>   -22.5992     0.0000    16.0000 </r>
       <r>   -22.3660     0.0000    16.0000 </r>
       <r>   -22.1328     0.0000    16.0000 </r>
       <r>   -21.8996     0.0000    16.0000 </r>
       <r>   -21.6663     0.0000    16.0000 </r>
       <r>   -21.4331     0.0000    16.0000 </r>
       <r>   -21.1999     0.0000    16.0000 </r>
       <r>   -20.9666     0.0000    16.0000 </r>
       <r>   -20.7334     0.0000    16.0000 </r>
       <r>   -20.5002     0.0000    16.0000 </r>
       <r>   -20.2670     0.0000    16.0000 </r>
       <r>   -20.0337     0.0000    16.0000 </r>
       <r>   -19.8005     0.0000    16.0000 </r>
       <r>   -19.5673     0.0000    16.0000 </r>
       <r>   -19.3340     0.0000    16.0000 </r>
       <r>   -19.1008     0.0000    16.0000 </r>
       <r>   -18.8676     0.0000    16.0000 </r>
       <r>   -18.6343     0.0000    16.0000 </r>
       <r>   -18.4011     0.0000    16.0000 </r>
       <r>   -18.1679     0.0000    16.0000 </r>
       <r>   -17.9347     0.0000    16.0000 </r>
       <r>   -17.7014     0.0000    16.0000 </r>
       <r>   -17.4682     0.0000    16.0000 </r>
       <r>   -17.2350     0.0001    16.0000 </r>
       <r>   -17.0017     0.0164    16.0038 </r>
       <r>   -16.7685     0.2968    16.0731 </r>
       <r>   -16.5353     0.7887    16.2570 </r>
       <r>   -16.3021     1.2230    16.5423 </r>
       <r>   -16.0688     3.0424    17.2518 </r>
       <r>   -15.8356     5.0401    18.4273 </r>
       <r>   -15.6024     5.6062    19.7349 </r>
       <r>   -15.3691     6.5258    21.2569 </r>
       <r>   -15.1359     7.8668    23.0917 </r>
       <r>   -14.9027     3.5799    23.9266 </r>
       <r>   -14.6694     0.3114    23.9992 </r>
       <r>   -14.4362     0.0033    24.0000 </r>
       <r>   -14.2030     0.0000    24.0000 </r>
       <r>   -13.9698     0.0000    24.0000 </r>
       <r>   -13.7365     0.0000    24.0000 </r>
       <r>   -13.5033     0.0000    24.0000 </r>
       <r>   -13.2701     0.0000    24.0000 </r>
       <r>   -13.0368     0.0000    24.0000 </r>
       <r>   -12.8036     0.0000    24.0000 </r>
       <r>   -12.5704     0.0000    24.0000 </r>
       <r>   -12.3372     0.0000    24.0000 </r>
       <r>   -12.1039     0.0000    24.0000 </r>
       <r>   -11.8707     0.0000    24.0000 </r>
       <r>   -11.6375     0.0000    24.0000 </r>
       <r>   -11.4042     0.0000    24.0000 </r>
       <r>   -11.1710     0.0000    24.0000 </r>
       <r>   -10.9378     0.0000    24.0000 </r>
       <r>   -10.7045     0.0000    24.0000 </r>
       <r>   -10.4713     0.0000    24.0000 </r>
       <r>   -10.2381     0.0000    24.0000 </r>
       <r>   -10.0049     0.0000    24.0000 </r>
       <r>    -9.7716     0.0000    24.0000 </r>
       <r>    -9.5384     0.0000    24.0000 </r>
       <r>    -9.3052     0.0000    24.0000 </r>
       <r>    -9.0719     0.0000    24.0000 </r>
       <r>    -8.8387     0.0000    24.0000 </r>
       <r>    -8.6055     0.0000    24.0000 </r>
       <r>    -8.3723     0.0000    24.0000 </r>
       <r>    -8.1390     0.0000    24.0000 </r>
       <r>    -7.9058     0.0000    24.0000 </r>
       <r>    -7.6726     0.0000    24.0000 </r>
       <r>    -7.4393     0.0000    24.0000 </r>
       <r>    -7.2061     0.0000    24.0000 </r>
       <r>    -6.9729     0.0000    24.0000 </r>
       <r>    -6.7396     0.0000    24.0000 </r>
       <r>    -6.5064     0.0000    24.0000 </r>
       <r>    -6.2732     0.0000    24.0000 </r>
       <r>    -6.0400     0.0000    24.0000 </r>
       <r>    -5.8067     0.0000    24.0000 </r>
       <r>    -5.5735     0.0000    24.0000 </r>
       <r>    -5.3403     0.0000    24.0000 </r>
       <r>    -5.1070     0.0000    24.0000 </r>
       <r>    -4.8738     0.0000    24.0000 </r>
       <r>    -4.6406     0.0000    24.0000 </r>
       <r>    -4.4074     0.0000    24.0000 </r>
       <r>    -4.1741     0.0000    24.0000 </r>
       <r>    -3.9409     0.0000    24.0000 </r>
       <r>    -3.7077     0.0000    24.0000 </r>
       <r>    -3.4744     0.0000    24.0000 </r>
       <r>    -3.2412     0.0000    24.0000 </r>
       <r>    -3.0080     0.0000    24.0000 </r>
       <r>    -2.7747     0.0000    24.0000 </r>
       <r>    -2.5415     0.0000    24.0000 </r>
       <r>    -2.3083     0.0000    24.0000 </r>
       <r>    -2.0751     0.0000    24.0000 </r>
       <r>    -1.8418     0.0001    24.0000 </r>
       <r>    -1.6086     0.0177    24.0041 </r>
       <r>    -1.3754     0.2790    24.0692 </r>
       <r>    -1.1421     0.6706    24.2256 </r>
       <r>    -0.9089     1.1760    24.4999 </r>
       <r>    -0.6757     3.3626    25.2841 </r>
       <r>    -0.4425     5.7151    26.6171 </r>
       <r>    -0.2092     4.4805    27.6621 </r>
       <r>     0.0240     3.1379    28.3939 </r>
       <r>     0.2572     2.7430    29.0337 </r>
       <r>     0.4905     2.6529    29.6524 </r>
       <r>     0.7237     5.2196    30.8698 </r>
       <r>     0.9569     7.1582    32.5393 </r>
       <r>     1.1902     5.4612    33.8130 </r>
       <r>     1.4234     5.2181    35.0300 </r>
       <r>     1.6566     3.7237    35.8985 </r>
       <r>     1.8898     5.0416    37.0743 </r>
       <r>     2.1231     4.7741    38.1878 </r>
       <r>     2.3563     3.0574    38.9008 </r>
       <r>     2.5895     3.7298    39.7707 </r>
       <r>     2.8228     4.7816    40.8860 </r>
       <r>     3.0560     3.0333    41.5934 </r>
       <r>     3.2892     3.5095    42.4119 </r>
       <r>     3.5224     4.1767    43.3861 </r>
       <r>     3.7557     2.5400    43.9785 </r>
       <r>     3.9889     3.7622    44.8559 </r>
       <r>     4.2221     5.2357    46.0770 </r>
       <r>     4.4554     3.5718    46.9101 </r>
       <r>     4.6886     1.0720    47.1601 </r>
       <r>     4.9218     1.1848    47.4364 </r>
       <r>     5.1551     1.5713    47.8029 </r>
       <r>     5.3883     0.7328    47.9738 </r>
       <r>     5.6215     0.1101    47.9995 </r>
       <r>     5.8547     0.0023    48.0000 </r>
       <r>     6.0880     0.0280    48.0066 </r>
       <r>     6.3212     0.8246    48.1989 </r>
       <r>     6.5544     2.9068    48.8768 </r>
       <r>     6.7877     2.8616    49.5442 </r>
       <r>     7.0209     4.7111    50.6430 </r>
       <r>     7.2541     6.2934    52.1108 </r>
       <r>     7.4873     4.5440    53.1706 </r>
       <r>     7.7206     6.2587    54.6303 </r>
       <r>     7.9538     7.3353    56.3411 </r>
       <r>     8.1870     3.2857    57.1075 </r>
       <r>     8.4203     3.2577    57.8673 </r>
       <r>     8.6535     3.9951    58.7990 </r>
       <r>     8.8867     3.6117    59.6414 </r>
       <r>     9.1200     1.8419    60.0710 </r>
       <r>     9.3532     2.4697    60.6470 </r>
       <r>     9.5864     1.8983    61.0897 </r>
       <r>     9.8196     1.0029    61.3236 </r>
       <r>    10.0529     1.6604    61.7108 </r>
       <r>    10.2861     1.9115    62.1567 </r>
       <r>    10.5193     2.1507    62.6583 </r>
       <r>    10.7526     2.0833    63.1442 </r>
       <r>    10.9858     1.7809    63.5595 </r>
       <r>    11.2190     1.0878    63.8132 </r>
       <r>    11.4522     0.4556    63.9195 </r>
       <r>    11.6855     0.2994    63.9893 </r>
       <r>    11.9187     0.0449    63.9998 </r>
       <r>    12.1519     0.0009    64.0000 </r>
       <r>    12.3852     0.0000    64.0000 </r>
       <r>    12.6184     0.0000    64.0000 </r>
       <r>    12.8516     0.0000    64.0000 </r>
       <r>    13.0849     0.0000    64.0000 </r>
       <r>    13.3181     0.0000    64.0000 </r>
       <r>    13.5513     0.0000    64.0000 </r>
       <r>    13.7845     0.0000    64.0000 </r>
       <r>    14.0178     0.0000    64.0000 </r>
       <r>    14.2510     0.0000    64.0000 </r>
       <r>    14.4842     0.0000    64.0000 </r>
       <r>    14.7175     0.0000    64.0000 </r>
      </set>
     </set>
    </array>
   </total>
  </dos>
 </calculation>
 <structure name="finalpos" >
  <crystal>
   <varray name="basis" >
    <v>       4.59220000       0.00000000       0.00000000 </v>
    <v>       0.00000000       4.59220000       0.00000000 </v>
    <v>       0.00000000       0.00000000       2.95740000 </v>
   </varray>
   <i name="volume">     62.36654090 </i>
   <varray name="rec_basis" >
    <v>       0.21776055       0.00000000       0.00000000 </v>
    <v>       0.00000000       0.21776055       0.00000000 </v>
    <v>       0.00000000       0.00000000       0.33813485 </v>
   </varray>
  </crystal>
  <varray name="positions" >
   <v>       0.30496000       0.30496000       0.00000000 </v>
   <v>       0.69504000       0.69504000       0.00000000 </v>
   <v>       0.19504000       0.80496000       0.50000000 </v>
   <v>       0.80496000       0.19504000       0.50000000 </v>
   <v>       0.00000000       0.00000000       0.00000000 </v>
   <v>       0.50000000       0.50000000       0.50000000 </v>
  </varray>
 </structure>
</modeling>
