unknown system                          
           1
     4.592200    0.000000    0.000000
     0.000000    4.592200    0.000000
     0.000000    0.000000    2.957400
   O    Ti
   4   2
Direct configuration=     1
   0.30496000  0.30496000  0.00000000
   0.69504000  0.69504000  0.00000000
   0.19504000  0.80496000  0.50000000
   0.80496000  0.19504000  0.50000000
   0.00000000  0.00000000  0.00000000
   0.50000000  0.50000000  0.50000000
