unknown system                          
   3.61000000000000     
     1.000000    0.000000    0.000000
     0.000000    1.000000    0.000000
     0.000000    0.000000    1.000000
   Cu
     1
Direct
  0.000000  0.000000  0.000000
 
   32   32   32
 0.18845644766E+04 0.17640824430E+04 0.14377235042E+04 0.10005224833E+04 0.57495627298E+03
 0.26130578007E+03 0.94856332162E+02 0.38875869305E+02 0.21954781750E+02 0.12371964118E+02
 0.74597363901E+01 0.52880570818E+01 0.41360153982E+01 0.31001430523E+01 0.23444630527E+01
 0.21442573123E+01 0.21797046414E+01 0.21442573123E+01 0.23444630527E+01 0.31001430523E+01
 0.41360153982E+01 0.52880570818E+01 0.74597363901E+01 0.12371964118E+02 0.21954781750E+02
 0.38875869305E+02 0.94856332162E+02 0.26130578007E+03 0.57495627298E+03 0.10005224833E+04
 0.14377235042E+04 0.17640824430E+04 0.17640824430E+04 0.16496403297E+04 0.13403407154E+04
 0.92786078768E+03 0.52919487345E+03 0.23854365203E+03 0.86989058327E+02 0.37173115563E+02
 0.21176434121E+02 0.12008218510E+02 0.73028007669E+01 0.52015852772E+01 0.40703658452E+01
 0.30588805814E+01 0.23218960065E+01 0.21170571012E+01 0.21444480861E+01 0.21170571012E+01
 0.23218960065E+01 0.30588805814E+01 0.40703658452E+01 0.52015852772E+01 0.73028007669E+01
 0.12008218510E+02 0.21176434121E+02 0.37173115563E+02 0.86989058327E+02 0.23854365203E+03
 0.52919487345E+03 0.92786078768E+03 0.13403407154E+04 0.16496403297E+04 0.14377235042E+04
 0.13403407154E+04 0.10789240624E+04 0.73506131950E+03 0.40994613795E+03 0.18092879938E+03
 0.68019456902E+02 0.32915815171E+02 0.19034446882E+02 0.11006536627E+02 0.68656878804E+01
 0.49571027169E+01 0.38842709583E+01 0.29408012383E+01 0.22564863431E+01 0.20413582832E+01
 0.20480476925E+01 0.20413582832E+01 0.22564863431E+01 0.29408012383E+01 0.38842709583E+01
 0.49571027169E+01 0.68656878804E+01 0.11006536627E+02 0.19034446882E+02 0.32915815171E+02
 0.68019456902E+02 0.18092879938E+03 0.40994613795E+03 0.73506131950E+03 0.10789240624E+04
 0.13403407154E+04 0.10005224833E+04 0.92786078768E+03 0.73506131950E+03 0.48751382845E+03
 0.26264500621E+03 0.11415730571E+03 0.48096428954E+02 0.27247294038E+02 0.16033801175E+02
 0.95980842758E+01 0.62344941237E+01 0.45923857616E+01 0.36051241860E+01 0.27601344001E+01
 0.21534330391E+01 0.19310327020E+01 0.19129140320E+01 0.19310327020E+01 0.21534330391E+01
 0.27601344001E+01 0.36051241860E+01 0.45923857616E+01 0.62344941237E+01 0.95980842758E+01
 0.16033801175E+02 0.27247294038E+02 0.48096428954E+02 0.11415730571E+03 0.26264500621E+03
 0.48751382845E+03 0.73506131950E+03 0.92786078768E+03 0.57495627298E+03 0.52919487345E+03
 0.40994613795E+03 0.26264500621E+03 0.13745770877E+03 0.63342802733E+02 0.34250379513E+02
 0.21067161583E+02 0.12802023659E+02 0.80629473931E+01 0.55121149436E+01 0.41523766360E+01
 0.32655426281E+01 0.25335974448E+01 0.20179129254E+01 0.17999846321E+01 0.17622250547E+01
 0.17999846321E+01 0.20179129254E+01 0.25335974448E+01 0.32655426281E+01 0.41523766360E+01
 0.55121149436E+01 0.80629473931E+01 0.12802023659E+02 0.21067161583E+02 0.34250379513E+02
 0.63342802733E+02 0.13745770877E+03 0.26264500621E+03 0.40994613795E+03 0.52919487345E+03
 0.26130578007E+03 0.23854365203E+03 0.18092879938E+03 0.11415730571E+03 0.63342802733E+02
 0.37285687614E+02 0.24353864359E+02 0.15435395115E+02 0.98709495676E+01 0.66301316969E+01
 0.47827501193E+01 0.36758098416E+01 0.28942525843E+01 0.22765917773E+01 0.18546815914E+01
 0.16571637381E+01 0.16107036037E+01 0.16571637381E+01 0.18546815914E+01 0.22765917773E+01
 0.28942525843E+01 0.36758098416E+01 0.47827501193E+01 0.66301316969E+01 0.98709495676E+01
 0.15435395115E+02 0.24353864359E+02 0.37285687614E+02 0.63342802733E+02 0.11415730571E+03
 0.18092879938E+03 0.23854365203E+03 0.94856332162E+02 0.86989058327E+02 0.68019456902E+02
 0.48096428954E+02 0.34250379513E+02 0.24353864359E+02 0.16478897965E+02 0.10996231622E+02
 0.75296679176E+01 0.54179374773E+01 0.40939667462E+01 0.31907070453E+01 0.25140263226E+01
 0.20041362985E+01 0.16711706569E+01 0.15078134399E+01 0.14639476383E+01 0.15078134399E+01
 0.16711706569E+01 0.20041362985E+01 0.25140263226E+01 0.31907070453E+01 0.40939667462E+01
 0.54179374773E+01 0.75296679176E+01 0.10996231622E+02 0.16478897965E+02 0.24353864359E+02
 0.34250379513E+02 0.48096428954E+02 0.68019456902E+02 0.86989058327E+02 0.38875869305E+02
 0.37173115563E+02 0.32915815171E+02 0.27247294038E+02 0.21067161583E+02 0.15435395115E+02
 0.10996231622E+02 0.78708967753E+01 0.58069597948E+01 0.44354656553E+01 0.34605119518E+01
 0.27172504917E+01 0.21445338049E+01 0.17336270685E+01 0.14804540358E+01 0.13576815714E+01
 0.13236271420E+01 0.13576815714E+01 0.14804540358E+01 0.17336270685E+01 0.21445338049E+01
 0.27172504917E+01 0.34605119518E+01 0.44354656553E+01 0.58069597948E+01 0.78708967753E+01
 0.10996231622E+02 0.15435395115E+02 0.21067161583E+02 0.27247294038E+02 0.32915815171E+02
 0.37173115563E+02 0.21954781750E+02 0.21176434121E+02 0.19034446882E+02 0.16033801175E+02
 0.12802023659E+02 0.98709495676E+01 0.75296679176E+01 0.58069597948E+01 0.45652554846E+01
 0.36304263254E+01 0.28816396009E+01 0.22727305765E+01 0.18045288483E+01 0.14843524670E+01
 0.12993933444E+01 0.12146314434E+01 0.11918777185E+01 0.12146314434E+01 0.12993933444E+01
 0.14843524670E+01 0.18045288483E+01 0.22727305765E+01 0.28816396009E+01 0.36304263254E+01
 0.45652554846E+01 0.58069597948E+01 0.75296679176E+01 0.98709495676E+01 0.12802023659E+02
 0.16033801175E+02 0.19034446882E+02 0.21176434121E+02 0.12371964118E+02 0.12008218510E+02
 0.11006536627E+02 0.95980842758E+01 0.80629473931E+01 0.66301316969E+01 0.54179374773E+01
 0.44354656553E+01 0.36304263254E+01 0.29466937122E+01 0.23590583069E+01 0.18743864343E+01
 0.15103813460E+01 0.12721553612E+01 0.11419172164E+01 0.10857692667E+01 0.10714363220E+01
 0.10857692667E+01 0.11419172164E+01 0.12721553612E+01 0.15103813460E+01 0.18743864343E+01
 0.23590583069E+01 0.29466937122E+01 0.36304263254E+01 0.44354656553E+01 0.54179374773E+01
 0.66301316969E+01 0.80629473931E+01 0.95980842758E+01 0.11006536627E+02 0.12008218510E+02
 0.74597363901E+01 0.73028007669E+01 0.68656878804E+01 0.62344941237E+01 0.55121149436E+01
 0.47827501193E+01 0.40939667462E+01 0.34605119518E+01 0.28816396009E+01 0.23590583069E+01
 0.19051768887E+01 0.15386452965E+01 0.12723501832E+01 0.11034689263E+01 0.10128319149E+01
 0.97359274851E+00 0.96337177373E+00 0.97359274851E+00 0.10128319149E+01 0.11034689263E+01
 0.12723501832E+01 0.15386452965E+01 0.19051768887E+01 0.23590583069E+01 0.28816396009E+01
 0.34605119518E+01 0.40939667462E+01 0.47827501193E+01 0.55121149436E+01 0.62344941237E+01
 0.68656878804E+01 0.73028007669E+01 0.52880570818E+01 0.52015852772E+01 0.49571027169E+01
 0.45923857616E+01 0.41523766360E+01 0.36758098416E+01 0.31907070453E+01 0.27172504917E+01
 0.22727305765E+01 0.18743864343E+01 0.15386452965E+01 0.12771553874E+01 0.10920567984E+01
 0.97439633084E+00 0.90785197223E+00 0.87564878204E+00 0.86623744797E+00 0.87564878204E+00
 0.90785197223E+00 0.97439633084E+00 0.10920567984E+01 0.12771553874E+01 0.15386452965E+01
 0.18743864343E+01 0.22727305765E+01 0.27172504917E+01 0.31907070453E+01 0.36758098416E+01
 0.41523766360E+01 0.45923857616E+01 0.49571027169E+01 0.52015852772E+01 0.41360153982E+01
 0.40703658452E+01 0.38842709583E+01 0.36051241860E+01 0.32655426281E+01 0.28942525843E+01
 0.25140263226E+01 0.21445338049E+01 0.18045288483E+01 0.15103813460E+01 0.12723501832E+01
 0.10920567984E+01 0.96332000094E+00 0.87587951011E+00 0.81980512844E+00 0.78830706438E+00
 0.77809874073E+00 0.78830706438E+00 0.81980512844E+00 0.87587951011E+00 0.96332000094E+00
 0.10920567984E+01 0.12723501832E+01 0.15103813460E+01 0.18045288483E+01 0.21445338049E+01
 0.25140263226E+01 0.28942525843E+01 0.32655426281E+01 0.36051241860E+01 0.38842709583E+01
 0.40703658452E+01 0.31001430523E+01 0.30588805814E+01 0.29408012383E+01 0.27601344001E+01
 0.25335974448E+01 0.22765917773E+01 0.20041362985E+01 0.17336270685E+01 0.14843524670E+01
 0.12721553612E+01 0.11034689263E+01 0.97439633084E+00 0.87587951011E+00 0.80043102723E+00
 0.74528844103E+00 0.71117720387E+00 0.69959579666E+00 0.71117720387E+00 0.74528844103E+00
 0.80043102723E+00 0.87587951011E+00 0.97439633084E+00 0.11034689263E+01 0.12721553612E+01
 0.14843524670E+01 0.17336270685E+01 0.20041362985E+01 0.22765917773E+01 0.25335974448E+01
 0.27601344001E+01 0.29408012383E+01 0.30588805814E+01 0.23444630527E+01 0.23218960065E+01
 0.22564863431E+01 0.21534330391E+01 0.20179129254E+01 0.18546815914E+01 0.16711706569E+01
 0.14804540358E+01 0.12993933444E+01 0.11419172164E+01 0.10128319149E+01 0.90785197223E+00
 0.81980512844E+00 0.74528844103E+00 0.68652259943E+00 0.64849684064E+00 0.63532940838E+00
 0.64849684064E+00 0.68652259943E+00 0.74528844103E+00 0.81980512844E+00 0.90785197223E+00
 0.10128319149E+01 0.11419172164E+01 0.12993933444E+01 0.14804540358E+01 0.16711706569E+01
 0.18546815914E+01 0.20179129254E+01 0.21534330391E+01 0.22564863431E+01 0.23218960065E+01
 0.21442573123E+01 0.21170571012E+01 0.20413582832E+01 0.19310327020E+01 0.17999846321E+01
 0.16571637381E+01 0.15078134399E+01 0.13576815714E+01 0.12146314434E+01 0.10857692667E+01
 0.97359274851E+00 0.87564878204E+00 0.78830706438E+00 0.71117720387E+00 0.64849684064E+00
 0.60699611634E+00 0.59242674706E+00 0.60699611634E+00 0.64849684064E+00 0.71117720387E+00
 0.78830706438E+00 0.87564878204E+00 0.97359274851E+00 0.10857692667E+01 0.12146314434E+01
 0.13576815714E+01 0.15078134399E+01 0.16571637381E+01 0.17999846321E+01 0.19310327020E+01
 0.20413582832E+01 0.21170571012E+01 0.21797046414E+01 0.21444480861E+01 0.20480476925E+01
 0.19129140320E+01 0.17622250547E+01 0.16107036037E+01 0.14639476383E+01 0.13236271420E+01
 0.11918777185E+01 0.10714363220E+01 0.96337177373E+00 0.86623744797E+00 0.77809874073E+00
 0.69959579666E+00 0.63532940838E+00 0.59242674706E+00 0.57727765982E+00 0.59242674706E+00
 0.63532940838E+00 0.69959579666E+00 0.77809874073E+00 0.86623744797E+00 0.96337177373E+00
 0.10714363220E+01 0.11918777185E+01 0.13236271420E+01 0.14639476383E+01 0.16107036037E+01
 0.17622250547E+01 0.19129140320E+01 0.20480476925E+01 0.21444480861E+01 0.21442573123E+01
 0.21170571012E+01 0.20413582832E+01 0.19310327020E+01 0.17999846321E+01 0.16571637381E+01
 0.15078134399E+01 0.13576815714E+01 0.12146314434E+01 0.10857692667E+01 0.97359274851E+00
 0.87564878204E+00 0.78830706438E+00 0.71117720387E+00 0.64849684064E+00 0.60699611634E+00
 0.59242674706E+00 0.60699611634E+00 0.64849684064E+00 0.71117720387E+00 0.78830706438E+00
 0.87564878204E+00 0.97359274851E+00 0.10857692667E+01 0.12146314434E+01 0.13576815714E+01
 0.15078134399E+01 0.16571637381E+01 0.17999846321E+01 0.19310327020E+01 0.20413582832E+01
 0.21170571012E+01 0.23444630527E+01 0.23218960065E+01 0.22564863431E+01 0.21534330391E+01
 0.20179129254E+01 0.18546815914E+01 0.16711706569E+01 0.14804540358E+01 0.12993933444E+01
 0.11419172164E+01 0.10128319149E+01 0.90785197223E+00 0.81980512844E+00 0.74528844103E+00
 0.68652259943E+00 0.64849684064E+00 0.63532940838E+00 0.64849684064E+00 0.68652259943E+00
 0.74528844103E+00 0.81980512844E+00 0.90785197223E+00 0.10128319149E+01 0.11419172164E+01
 0.12993933444E+01 0.14804540358E+01 0.16711706569E+01 0.18546815914E+01 0.20179129254E+01
 0.21534330391E+01 0.22564863431E+01 0.23218960065E+01 0.31001430523E+01 0.30588805814E+01
 0.29408012383E+01 0.27601344001E+01 0.25335974448E+01 0.22765917773E+01 0.20041362985E+01
 0.17336270685E+01 0.14843524670E+01 0.12721553612E+01 0.11034689263E+01 0.97439633084E+00
 0.87587951011E+00 0.80043102723E+00 0.74528844103E+00 0.71117720387E+00 0.69959579666E+00
 0.71117720387E+00 0.74528844103E+00 0.80043102723E+00 0.87587951011E+00 0.97439633084E+00
 0.11034689263E+01 0.12721553612E+01 0.14843524670E+01 0.17336270685E+01 0.20041362985E+01
 0.22765917773E+01 0.25335974448E+01 0.27601344001E+01 0.29408012383E+01 0.30588805814E+01
 0.41360153982E+01 0.40703658452E+01 0.38842709583E+01 0.36051241860E+01 0.32655426281E+01
 0.28942525843E+01 0.25140263226E+01 0.21445338049E+01 0.18045288483E+01 0.15103813460E+01
 0.12723501832E+01 0.10920567984E+01 0.96332000094E+00 0.87587951011E+00 0.81980512844E+00
 0.78830706438E+00 0.77809874073E+00 0.78830706438E+00 0.81980512844E+00 0.87587951011E+00
 0.96332000094E+00 0.10920567984E+01 0.12723501832E+01 0.15103813460E+01 0.18045288483E+01
 0.21445338049E+01 0.25140263226E+01 0.28942525843E+01 0.32655426281E+01 0.36051241860E+01
 0.38842709583E+01 0.40703658452E+01 0.52880570818E+01 0.52015852772E+01 0.49571027169E+01
 0.45923857616E+01 0.41523766360E+01 0.36758098416E+01 0.31907070453E+01 0.27172504917E+01
 0.22727305765E+01 0.18743864343E+01 0.15386452965E+01 0.12771553874E+01 0.10920567984E+01
 0.97439633084E+00 0.90785197223E+00 0.87564878204E+00 0.86623744797E+00 0.87564878204E+00
 0.90785197223E+00 0.97439633084E+00 0.10920567984E+01 0.12771553874E+01 0.15386452965E+01
 0.18743864343E+01 0.22727305765E+01 0.27172504917E+01 0.31907070453E+01 0.36758098416E+01
 0.41523766360E+01 0.45923857616E+01 0.49571027169E+01 0.52015852772E+01 0.74597363901E+01
 0.73028007669E+01 0.68656878804E+01 0.62344941237E+01 0.55121149436E+01 0.47827501193E+01
 0.40939667462E+01 0.34605119518E+01 0.28816396009E+01 0.23590583069E+01 0.19051768887E+01
 0.15386452965E+01 0.12723501832E+01 0.11034689263E+01 0.10128319149E+01 0.97359274851E+00
 0.96337177373E+00 0.97359274851E+00 0.10128319149E+01 0.11034689263E+01 0.12723501832E+01
 0.15386452965E+01 0.19051768887E+01 0.23590583069E+01 0.28816396009E+01 0.34605119518E+01
 0.40939667462E+01 0.47827501193E+01 0.55121149436E+01 0.62344941237E+01 0.68656878804E+01
 0.73028007669E+01 0.12371964118E+02 0.12008218510E+02 0.11006536627E+02 0.95980842758E+01
 0.80629473931E+01 0.66301316969E+01 0.54179374773E+01 0.44354656553E+01 0.36304263254E+01
 0.29466937122E+01 0.23590583069E+01 0.18743864343E+01 0.15103813460E+01 0.12721553612E+01
 0.11419172164E+01 0.10857692667E+01 0.10714363220E+01 0.10857692667E+01 0.11419172164E+01
 0.12721553612E+01 0.15103813460E+01 0.18743864343E+01 0.23590583069E+01 0.29466937122E+01
 0.36304263254E+01 0.44354656553E+01 0.54179374773E+01 0.66301316969E+01 0.80629473931E+01
 0.95980842758E+01 0.11006536627E+02 0.12008218510E+02 0.21954781750E+02 0.21176434121E+02
 0.19034446882E+02 0.16033801175E+02 0.12802023659E+02 0.98709495676E+01 0.75296679176E+01
 0.58069597948E+01 0.45652554846E+01 0.36304263254E+01 0.28816396009E+01 0.22727305765E+01
 0.18045288483E+01 0.14843524670E+01 0.12993933444E+01 0.12146314434E+01 0.11918777185E+01
 0.12146314434E+01 0.12993933444E+01 0.14843524670E+01 0.18045288483E+01 0.22727305765E+01
 0.28816396009E+01 0.36304263254E+01 0.45652554846E+01 0.58069597948E+01 0.75296679176E+01
 0.98709495676E+01 0.12802023659E+02 0.16033801175E+02 0.19034446882E+02 0.21176434121E+02
 0.38875869305E+02 0.37173115563E+02 0.32915815171E+02 0.27247294038E+02 0.21067161583E+02
 0.15435395115E+02 0.10996231622E+02 0.78708967753E+01 0.58069597948E+01 0.44354656553E+01
 0.34605119518E+01 0.27172504917E+01 0.21445338049E+01 0.17336270685E+01 0.14804540358E+01
 0.13576815714E+01 0.13236271420E+01 0.13576815714E+01 0.14804540358E+01 0.17336270685E+01
 0.21445338049E+01 0.27172504917E+01 0.34605119518E+01 0.44354656553E+01 0.58069597948E+01
 0.78708967753E+01 0.10996231622E+02 0.15435395115E+02 0.21067161583E+02 0.27247294038E+02
 0.32915815171E+02 0.37173115563E+02 0.94856332162E+02 0.86989058327E+02 0.68019456902E+02
 0.48096428954E+02 0.34250379513E+02 0.24353864359E+02 0.16478897965E+02 0.10996231622E+02
 0.75296679176E+01 0.54179374773E+01 0.40939667462E+01 0.31907070453E+01 0.25140263226E+01
 0.20041362985E+01 0.16711706569E+01 0.15078134399E+01 0.14639476383E+01 0.15078134399E+01
 0.16711706569E+01 0.20041362985E+01 0.25140263226E+01 0.31907070453E+01 0.40939667462E+01
 0.54179374773E+01 0.75296679176E+01 0.10996231622E+02 0.16478897965E+02 0.24353864359E+02
 0.34250379513E+02 0.48096428954E+02 0.68019456902E+02 0.86989058327E+02 0.26130578007E+03
 0.23854365203E+03 0.18092879938E+03 0.11415730571E+03 0.63342802733E+02 0.37285687614E+02
 0.24353864359E+02 0.15435395115E+02 0.98709495676E+01 0.66301316969E+01 0.47827501193E+01
 0.36758098416E+01 0.28942525843E+01 0.22765917773E+01 0.18546815914E+01 0.16571637381E+01
 0.16107036037E+01 0.16571637381E+01 0.18546815914E+01 0.22765917773E+01 0.28942525843E+01
 0.36758098416E+01 0.47827501193E+01 0.66301316969E+01 0.98709495676E+01 0.15435395115E+02
 0.24353864359E+02 0.37285687614E+02 0.63342802733E+02 0.11415730571E+03 0.18092879938E+03
 0.23854365203E+03 0.57495627298E+03 0.52919487345E+03 0.40994613795E+03 0.26264500621E+03
 0.13745770877E+03 0.63342802733E+02 0.34250379513E+02 0.21067161583E+02 0.12802023659E+02
 0.80629473931E+01 0.55121149436E+01 0.41523766360E+01 0.32655426281E+01 0.25335974448E+01
 0.20179129254E+01 0.17999846321E+01 0.17622250547E+01 0.17999846321E+01 0.20179129254E+01
 0.25335974448E+01 0.32655426281E+01 0.41523766360E+01 0.55121149436E+01 0.80629473931E+01
 0.12802023659E+02 0.21067161583E+02 0.34250379513E+02 0.63342802733E+02 0.13745770877E+03
 0.26264500621E+03 0.40994613795E+03 0.52919487345E+03 0.10005224833E+04 0.92786078768E+03
 0.73506131950E+03 0.48751382845E+03 0.26264500621E+03 0.11415730571E+03 0.48096428954E+02
 0.27247294038E+02 0.16033801175E+02 0.95980842758E+01 0.62344941237E+01 0.45923857616E+01
 0.36051241860E+01 0.27601344001E+01 0.21534330391E+01 0.19310327020E+01 0.19129140320E+01
 0.19310327020E+01 0.21534330391E+01 0.27601344001E+01 0.36051241860E+01 0.45923857616E+01
 0.62344941237E+01 0.95980842758E+01 0.16033801175E+02 0.27247294038E+02 0.48096428954E+02
 0.11415730571E+03 0.26264500621E+03 0.48751382845E+03 0.73506131950E+03 0.92786078768E+03
 0.14377235042E+04 0.13403407154E+04 0.10789240624E+04 0.73506131950E+03 0.40994613795E+03
 0.18092879938E+03 0.68019456902E+02 0.32915815171E+02 0.19034446882E+02 0.11006536627E+02
 0.68656878804E+01 0.49571027169E+01 0.38842709583E+01 0.29408012383E+01 0.22564863431E+01
 0.20413582832E+01 0.20480476925E+01 0.20413582832E+01 0.22564863431E+01 0.29408012383E+01
 0.38842709583E+01 0.49571027169E+01 0.68656878804E+01 0.11006536627E+02 0.19034446882E+02
 0.32915815171E+02 0.68019456902E+02 0.18092879938E+03 0.40994613795E+03 0.73506131950E+03
 0.10789240624E+04 0.13403407154E+04 0.17640824430E+04 0.16496403297E+04 0.13403407154E+04
 0.92786078768E+03 0.52919487345E+03 0.23854365203E+03 0.86989058327E+02 0.37173115563E+02
 0.21176434121E+02 0.12008218510E+02 0.73028007669E+01 0.52015852772E+01 0.40703658452E+01
 0.30588805814E+01 0.23218960065E+01 0.21170571012E+01 0.21444480861E+01 0.21170571012E+01
 0.23218960065E+01 0.30588805814E+01 0.40703658452E+01 0.52015852772E+01 0.73028007669E+01
 0.12008218510E+02 0.21176434121E+02 0.37173115563E+02 0.86989058327E+02 0.23854365203E+03
 0.52919487345E+03 0.92786078768E+03 0.13403407154E+04 0.16496403297E+04 0.17640824430E+04
 0.16496403297E+04 0.13403407154E+04 0.92786078768E+03 0.52919487345E+03 0.23854365203E+03
 0.86989058327E+02 0.37173115563E+02 0.21176434121E+02 0.12008218510E+02 0.73028007669E+01
 0.52015852772E+01 0.40703658452E+01 0.30588805814E+01 0.23218960065E+01 0.21170571012E+01
 0.21444480861E+01 0.21170571012E+01 0.23218960065E+01 0.30588805814E+01 0.40703658452E+01
 0.52015852772E+01 0.73028007669E+01 0.12008218510E+02 0.21176434121E+02 0.37173115563E+02
 0.86989058327E+02 0.23854365203E+03 0.52919487345E+03 0.92786078768E+03 0.13403407154E+04
 0.16496403297E+04 0.16496403297E+04 0.15410547649E+04 0.12482466694E+04 0.85953602461E+03
 0.48654656962E+03 0.21763454248E+03 0.79938435234E+02 0.35632888044E+02 0.20432019117E+02
 0.11660740527E+02 0.71523821729E+01 0.51181791692E+01 0.40068316349E+01 0.30186140532E+01
 0.22995451182E+01 0.20905704824E+01 0.21104583221E+01 0.20905704824E+01 0.22995451182E+01
 0.30186140532E+01 0.40068316349E+01 0.51181791692E+01 0.71523821729E+01 0.11660740527E+02
 0.20432019117E+02 0.35632888044E+02 0.79938435234E+02 0.21763454248E+03 0.48654656962E+03
 0.85953602461E+03 0.12482466694E+04 0.15410547649E+04 0.13403407154E+04 0.12482466694E+04
 0.10015975740E+04 0.67869327118E+03 0.37573460375E+03 0.16491556971E+03 0.63019011089E+02
 0.31685274141E+02 0.18383187610E+02 0.10703033579E+02 0.67326016782E+01 0.48817572956E+01
 0.38263549232E+01 0.29032120823E+01 0.22347472235E+01 0.20168425792E+01 0.20175271518E+01
 0.20168425792E+01 0.22347472235E+01 0.29032120823E+01 0.38263549232E+01 0.48817572956E+01
 0.67326016782E+01 0.10703033579E+02 0.18383187610E+02 0.31685274141E+02 0.63019011089E+02
 0.16491556971E+03 0.37573460375E+03 0.67869327118E+03 0.10015975740E+04 0.12482466694E+04
 0.92786078768E+03 0.85953602461E+03 0.67869327118E+03 0.44770681916E+03 0.23971797687E+03
 0.10433496436E+03 0.45374847157E+02 0.26250367328E+02 0.15512219960E+02 0.93540732456E+01
 0.61241188751E+01 0.45273627655E+01 0.35545465145E+01 0.27261220785E+01 0.21325855473E+01
 0.19092705501E+01 0.18871717935E+01 0.19092705501E+01 0.21325855473E+01 0.27261220785E+01
 0.35545465145E+01 0.45273627655E+01 0.61241188751E+01 0.93540732456E+01 0.15512219960E+02
 0.26250367328E+02 0.45374847157E+02 0.10433496436E+03 0.23971797687E+03 0.44770681916E+03
 0.67869327118E+03 0.85953602461E+03 0.52919487345E+03 0.48654656962E+03 0.37573460375E+03
 0.23971797687E+03 0.12538500222E+03 0.58868509207E+02 0.32938619554E+02 0.20327727091E+02
 0.12418214850E+02 0.78798309250E+01 0.54239680959E+01 0.40971519861E+01 0.32221470632E+01
 0.25032219123E+01 0.19980957829E+01 0.17811386664E+01 0.17414298729E+01 0.17811386664E+01
 0.19980957829E+01 0.25032219123E+01 0.32221470632E+01 0.40971519861E+01 0.54239680959E+01
 0.78798309250E+01 0.12418214850E+02 0.20327727091E+02 0.32938619554E+02 0.58868509207E+02
 0.12538500222E+03 0.23971797687E+03 0.37573460375E+03 0.48654656962E+03 0.23854365203E+03
 0.21763454248E+03 0.16491556971E+03 0.10433496436E+03 0.58868509207E+02 0.35732072845E+02
 0.23472380360E+02 0.14935100323E+02 0.96086598581E+01 0.64986393583E+01 0.47125867419E+01
 0.36283692327E+01 0.28568398391E+01 0.22494898748E+01 0.18360176719E+01 0.16409143180E+01
 0.15940957805E+01 0.16409143180E+01 0.18360176719E+01 0.22494898748E+01 0.28568398391E+01
 0.36283692327E+01 0.47125867419E+01 0.64986393583E+01 0.96086598581E+01 0.14935100323E+02
 0.23472380360E+02 0.35732072845E+02 0.58868509207E+02 0.10433496436E+03 0.16491556971E+03
 0.21763454248E+03 0.86989058327E+02 0.79938435234E+02 0.63019011089E+02 0.45374847157E+02
 0.32938619554E+02 0.23472380360E+02 0.15932187724E+02 0.10683729429E+02 0.73592084658E+01
 0.53242236568E+01 0.40367635510E+01 0.31491829952E+01 0.24814889164E+01 0.19800958271E+01
 0.16539541635E+01 0.14936895088E+01 0.14503839723E+01 0.14936895088E+01 0.16539541635E+01
 0.19800958271E+01 0.24814889164E+01 0.31491829952E+01 0.40367635510E+01 0.53242236568E+01
 0.73592084658E+01 0.10683729429E+02 0.15932187724E+02 0.23472380360E+02 0.32938619554E+02
 0.45374847157E+02 0.63019011089E+02 0.79938435234E+02 0.37173115563E+02 0.35632888044E+02
 0.31685274141E+02 0.26250367328E+02 0.20327727091E+02 0.14935100323E+02 0.10683729429E+02
 0.76854066991E+01 0.56971906771E+01 0.43666321515E+01 0.34126340099E+01 0.26808912957E+01
 0.21165025601E+01 0.17128253320E+01 0.14651261742E+01 0.13453035755E+01 0.13120768370E+01
 0.13453035755E+01 0.14651261742E+01 0.17128253320E+01 0.21165025601E+01 0.26808912957E+01
 0.34126340099E+01 0.43666321515E+01 0.56971906771E+01 0.76854066991E+01 0.10683729429E+02
 0.14935100323E+02 0.20327727091E+02 0.26250367328E+02 0.31685274141E+02 0.35632888044E+02
 0.21176434121E+02 0.20432019117E+02 0.18383187610E+02 0.15512219960E+02 0.12418214850E+02
 0.96086598581E+01 0.73592084658E+01 0.56971906771E+01 0.44916381547E+01 0.35774965656E+01
 0.28414467732E+01 0.22418130177E+01 0.17812039676E+01 0.14670649352E+01 0.12862401652E+01
 0.12036951203E+01 0.11816044097E+01 0.12036951203E+01 0.12862401652E+01 0.14670649352E+01
 0.17812039676E+01 0.22418130177E+01 0.28414467732E+01 0.35774965656E+01 0.44916381547E+01
 0.56971906771E+01 0.73592084658E+01 0.96086598581E+01 0.12418214850E+02 0.15512219960E+02
 0.18383187610E+02 0.20432019117E+02 0.12008218510E+02 0.11660740527E+02 0.10703033579E+02
 0.93540732456E+01 0.78798309250E+01 0.64986393583E+01 0.53242236568E+01 0.43666321515E+01
 0.35774965656E+01 0.29048601018E+01 0.23262365372E+01 0.18494203279E+01 0.14918845620E+01
 0.12582905403E+01 0.11308014348E+01 0.10759377053E+01 0.10619548848E+01 0.10759377053E+01
 0.11308014348E+01 0.12582905403E+01 0.14918845620E+01 0.18494203279E+01 0.23262365372E+01
 0.29048601018E+01 0.35774965656E+01 0.43666321515E+01 0.53242236568E+01 0.64986393583E+01
 0.78798309250E+01 0.93540732456E+01 0.10703033579E+02 0.11660740527E+02 0.73028007669E+01
 0.71523821729E+01 0.67326016782E+01 0.61241188751E+01 0.54239680959E+01 0.47125867419E+01
 0.40367635510E+01 0.34126340099E+01 0.28414467732E+01 0.23262365372E+01 0.18796029633E+01
 0.15195614065E+01 0.12582243360E+01 0.10924354198E+01 0.10032897608E+01 0.96455783565E+00
 0.95443091431E+00 0.96455783565E+00 0.10032897608E+01 0.10924354198E+01 0.12582243360E+01
 0.15195614065E+01 0.18796029633E+01 0.23262365372E+01 0.28414467732E+01 0.34126340099E+01
 0.40367635510E+01 0.47125867419E+01 0.54239680959E+01 0.61241188751E+01 0.67326016782E+01
 0.71523821729E+01 0.52015852772E+01 0.51181791692E+01 0.48817572956E+01 0.45273627655E+01
 0.40971519861E+01 0.36283692327E+01 0.31491829952E+01 0.26808912957E+01 0.22418130177E+01
 0.18494203279E+01 0.15195614065E+01 0.12629978839E+01 0.10812654665E+01 0.96537987661E+00
 0.89946050139E+00 0.86732659289E+00 0.85788367365E+00 0.86732659289E+00 0.89946050139E+00
 0.96537987661E+00 0.10812654665E+01 0.12629978839E+01 0.15195614065E+01 0.18494203279E+01
 0.22418130177E+01 0.26808912957E+01 0.31491829952E+01 0.36283692327E+01 0.40971519861E+01
 0.45273627655E+01 0.48817572956E+01 0.51181791692E+01 0.40703658452E+01 0.40068316349E+01
 0.38263549232E+01 0.35545465145E+01 0.32221470632E+01 0.28568398391E+01 0.24814889164E+01
 0.21165025601E+01 0.17812039676E+01 0.14918845620E+01 0.12582243360E+01 0.10812654665E+01
 0.95461176444E+00 0.86817489318E+00 0.81239901407E+00 0.78088623263E+00 0.77063759047E+00
 0.78088623263E+00 0.81239901407E+00 0.86817489318E+00 0.95461176444E+00 0.10812654665E+01
 0.12582243360E+01 0.14918845620E+01 0.17812039676E+01 0.21165025601E+01 0.24814889164E+01
 0.28568398391E+01 0.32221470632E+01 0.35545465145E+01 0.38263549232E+01 0.40068316349E+01
 0.30588805814E+01 0.30186140532E+01 0.29032120823E+01 0.27261220785E+01 0.25032219123E+01
 0.22494898748E+01 0.19800958271E+01 0.17128253320E+01 0.14670649352E+01 0.12582905403E+01
 0.10924354198E+01 0.96537987661E+00 0.86817489318E+00 0.79353494089E+00 0.73883071819E+00
 0.70489405074E+00 0.69334933678E+00 0.70489405074E+00 0.73883071819E+00 0.79353494089E+00
 0.86817489318E+00 0.96537987661E+00 0.10924354198E+01 0.12582905403E+01 0.14670649352E+01
 0.17128253320E+01 0.19800958271E+01 0.22494898748E+01 0.25032219123E+01 0.27261220785E+01
 0.29032120823E+01 0.30186140532E+01 0.23218960065E+01 0.22995451182E+01 0.22347472235E+01
 0.21325855473E+01 0.19980957829E+01 0.18360176719E+01 0.16539541635E+01 0.14651261742E+01
 0.12862401652E+01 0.11308014348E+01 0.10032897608E+01 0.89946050139E+00 0.81239901407E+00
 0.73883071819E+00 0.68086934737E+00 0.64335118065E+00 0.63034977196E+00 0.64335118065E+00
 0.68086934737E+00 0.73883071819E+00 0.81239901407E+00 0.89946050139E+00 0.10032897608E+01
 0.11308014348E+01 0.12862401652E+01 0.14651261742E+01 0.16539541635E+01 0.18360176719E+01
 0.19980957829E+01 0.21325855473E+01 0.22347472235E+01 0.22995451182E+01 0.21170571012E+01
 0.20905704824E+01 0.20168425792E+01 0.19092705501E+01 0.17811386664E+01 0.16409143180E+01
 0.14936895088E+01 0.13453035755E+01 0.12036951203E+01 0.10759377053E+01 0.96455783565E+00
 0.86732659289E+00 0.78088623263E+00 0.70489405074E+00 0.64335118065E+00 0.60266757502E+00
 0.58839035165E+00 0.60266757502E+00 0.64335118065E+00 0.70489405074E+00 0.78088623263E+00
 0.86732659289E+00 0.96455783565E+00 0.10759377053E+01 0.12036951203E+01 0.13453035755E+01
 0.14936895088E+01 0.16409143180E+01 0.17811386664E+01 0.19092705501E+01 0.20168425792E+01
 0.20905704824E+01 0.21444480861E+01 0.21104583221E+01 0.20175271518E+01 0.18871717935E+01
 0.17414298729E+01 0.15940957805E+01 0.14503839723E+01 0.13120768370E+01 0.11816044097E+01
 0.10619548848E+01 0.95443091431E+00 0.85788367365E+00 0.77063759047E+00 0.69334933678E+00
 0.63034977196E+00 0.58839035165E+00 0.57358650699E+00 0.58839035165E+00 0.63034977196E+00
 0.69334933678E+00 0.77063759047E+00 0.85788367365E+00 0.95443091431E+00 0.10619548848E+01
 0.11816044097E+01 0.13120768370E+01 0.14503839723E+01 0.15940957805E+01 0.17414298729E+01
 0.18871717935E+01 0.20175271518E+01 0.21104583221E+01 0.21170571012E+01 0.20905704824E+01
 0.20168425792E+01 0.19092705501E+01 0.17811386664E+01 0.16409143180E+01 0.14936895088E+01
 0.13453035755E+01 0.12036951203E+01 0.10759377053E+01 0.96455783565E+00 0.86732659289E+00
 0.78088623263E+00 0.70489405074E+00 0.64335118065E+00 0.60266757502E+00 0.58839035165E+00
 0.60266757502E+00 0.64335118065E+00 0.70489405074E+00 0.78088623263E+00 0.86732659289E+00
 0.96455783565E+00 0.10759377053E+01 0.12036951203E+01 0.13453035755E+01 0.14936895088E+01
 0.16409143180E+01 0.17811386664E+01 0.19092705501E+01 0.20168425792E+01 0.20905704824E+01
 0.23218960065E+01 0.22995451182E+01 0.22347472235E+01 0.21325855473E+01 0.19980957829E+01
 0.18360176719E+01 0.16539541635E+01 0.14651261742E+01 0.12862401652E+01 0.11308014348E+01
 0.10032897608E+01 0.89946050139E+00 0.81239901407E+00 0.73883071819E+00 0.68086934737E+00
 0.64335118065E+00 0.63034977196E+00 0.64335118065E+00 0.68086934737E+00 0.73883071819E+00
 0.81239901407E+00 0.89946050139E+00 0.10032897608E+01 0.11308014348E+01 0.12862401652E+01
 0.14651261742E+01 0.16539541635E+01 0.18360176719E+01 0.19980957829E+01 0.21325855473E+01