    1    1    1    1
  0.4704588E+02  0.3610000E-09  0.3610000E-09  0.3610000E-09  0.5000000E-15
  1.000000000000000E-004
  CAR 
 unknown system                          
   17   24   16
 
  0.0000000E+00  0.0000000E+00  0.0000000E+00  0.4166667E-01
   1      -69.505954
   2      -69.505954
   3      -69.505954
   4       -4.341925
   5       -2.773577
   6       -2.773577
   7       -2.445052
   8       -2.445052
   9       -2.445052
  10        6.790726
  11        6.790726
  12        6.790726
  13        8.802737
  14        9.280934
  15        9.280934
  16       18.812783
 
  0.0000000E+00  0.1666667E+00  0.0000000E+00  0.4166667E-01
   1      -69.588059
   2      -69.565572
   3      -69.565572
   4       -4.042474
   5       -2.784617
   6       -2.757246
   7       -2.491667
   8       -2.491667
   9       -2.467841
  10        4.223077
  11        7.097853
  12        7.097853
  13        9.209057
  14        9.543781
  15       12.213764
  16       16.171109
 
  0.0000000E+00  0.3333333E+00  0.0000000E+00  0.4166667E-01
   1      -69.604248
   2      -69.576557
   3      -69.576557
   4       -3.323081
   5       -2.769377
   6       -2.546151
   7       -2.546151
   8       -2.482221
   9       -2.467759
  10        1.407612
  11        7.892214
  12        7.892214
  13       10.025548
  14       10.363917
  15       13.462375
  16       13.586591
 
  0.0000000E+00  0.5000000E+00  0.0000000E+00  0.4166667E-01
   1      -69.653958
   2      -69.573584
   3      -69.573584
   4       -3.039814
   5       -2.756916
   6       -2.579358
   7       -2.579358
   8       -2.461239
   9       -1.710422
  10       -0.271361
  11        8.486208
  12        8.486208
  13       11.166497
  14       11.500562
  15       11.781001
  16       12.143684
 
  0.0000000E+00  0.5000000E+00  0.0000000E+00  0.4166667E-01
   1      -69.653958
   2      -69.573584
   3      -69.573584
   4       -3.039814
   5       -2.756916
   6       -2.579358
   7       -2.579358
   8       -2.461239
   9       -1.710422
  10       -0.271361
  11        8.486208
  12        8.486208
  13       11.166497
  14       11.500562
  15       11.781002
  16       12.143685
 
  0.1666667E+00  0.5000000E+00  0.0000000E+00  0.4166667E-01
   1      -69.655191
   2      -69.599697
   3      -69.598602
   4       -2.897522
   5       -2.720787
   6       -2.650167
   7       -2.581354
   8       -2.483185
   9       -1.559337
  10        0.073220
  11        6.136165
  12        8.555527
  13        8.788118
  14       11.888120
  15       12.006261
  16       12.679259
 
  0.3333333E+00  0.5000000E+00  0.0000000E+00  0.4166667E-01
   1      -69.607005
   2      -69.602611
   3      -69.600067
   4       -2.798162
   5       -2.746617
   6       -2.561457
   7       -2.532581
   8       -2.489362
   9       -0.884928
  10        0.948654
  11        3.324124
  12        5.938165
  13        9.549166
  14       12.664049
  15       12.882811
  16       13.537215
 
  0.5000000E+00  0.5000000E+00  0.0000000E+00  0.4166667E-01
   1      -69.609035
   2      -69.606226
   3      -69.606226
   4       -2.793379
   5       -2.778513
   6       -2.559238
   7       -2.559238
   8       -2.396407
   9        0.061477
  10        1.646086
  11        1.646086
  12        4.662057
  13       10.084976
  14       13.743115
  15       13.743115
  16       14.351232
 
  0.5000000E+00  0.5000000E+00  0.0000000E+00  0.4166667E-01
   1      -69.609035
   2      -69.606226
   3      -69.606226
   4       -2.793379
   5       -2.778513
   6       -2.559238
   7       -2.559238
   8       -2.396407
   9        0.061477
  10        1.646086
  11        1.646086
  12        4.662057
  13       10.084976
  14       13.743115
  15       13.743115
  16       14.351233
 
  0.3333333E+00  0.3333333E+00  0.0000000E+00  0.4166667E-01
   1      -69.639958
   2      -69.629210
   3      -69.612470
   4       -2.840996
   5       -2.724871
   6       -2.549419
   7       -2.545186
   8       -2.540473
   9       -1.807299
  10        2.426393
  11        2.709564
  12        7.278086
  13        8.975782
  14       11.365624
  15       14.347077
  16       14.388451
 
  0.1666667E+00  0.1666667E+00  0.0000000E+00  0.4166667E-01
   1      -69.600156
   2      -69.576930
   3      -69.571401
   4       -3.742685
   5       -2.766555
   6       -2.733568
   7       -2.521916
   8       -2.489536
   9       -2.487853
  10        4.506243
  11        4.550901
  12        7.404761
  13        9.624555
  14       11.831244
  15       12.651982
  16       13.590311
 
  0.0000000E+00  0.0000000E+00  0.0000000E+00  0.4166667E-01
   1      -69.505954
   2      -69.505954
   3      -69.505954
   4       -4.341925
   5       -2.773577
   6       -2.773577
   7       -2.445052
   8       -2.445052
   9       -2.445052
  10        6.790726
  11        6.790726
  12        6.790726
  13        8.802737
  14        9.280934
  15        9.280934
  16       18.812783
 
  0.0000000E+00  0.0000000E+00  0.0000000E+00  0.4166667E-01
   1      -69.505954
   2      -69.505954
   3      -69.505954
   4       -4.341925
   5       -2.773577
   6       -2.773577
   7       -2.445052
   8       -2.445052
   9       -2.445052
  10        6.790726
  11        6.790726
  12        6.790726
  13        8.802737
  14        9.280934
  15        9.280934
  16       18.812783
 
  0.1666667E+00  0.1666667E+00  0.1666667E+00  0.4166667E-01
   1      -69.580831
   2      -69.580831
   3      -69.578102
   4       -3.441419
   5       -2.723853
   6       -2.723853
   7       -2.517876
   8       -2.517876
   9       -2.501175
  10        4.813253
  11        4.813253
  12        4.875630
  13       11.582546
  14       12.662339
  15       12.662340
  16       13.594526
 
  0.3333333E+00  0.3333333E+00  0.3333333E+00  0.4166667E-01
   1      -69.597733
   2      -69.581823
   3      -69.581823
   4       -2.695126
   5       -2.648372
   6       -2.648372
   7       -2.511248
   8       -2.511248
   9       -0.742110
  10        3.565776
  11        3.565776
  12        4.019441
  13        7.959910
  14        8.791519
  15        8.791519
  16       12.614809
 
  0.5000000E+00  0.5000000E+00  0.5000000E+00  0.4166667E-01
   1      -69.598684
   2      -69.598684
   3      -69.598684
   4       -2.732334
   5       -2.732334
   6       -2.732334
   7       -2.386666
   8       -2.386666
   9        2.125983
  10        3.430624
  11        3.430624
  12        3.430624
  13        6.994086
  14        6.994086
  15        6.994086
  16        7.614638
 
  0.5000000E+00  0.5000000E+00  0.5000000E+00  0.4166667E-01
   1      -69.598684
   2      -69.598684
   3      -69.598684
   4       -2.732334
   5       -2.732334
   6       -2.732334
   7       -2.386666
   8       -2.386666
   9        2.125983
  10        3.430624
  11        3.430624
  12        3.430624
  13        6.994086
  14        6.994086
  15        6.994086
  16        7.614638
 
  0.3333333E+00  0.5000000E+00  0.3333333E+00  0.4166667E-01
   1      -69.614513
   2      -69.609721
   3      -69.605465
   4       -2.720918
   5       -2.696058
   6       -2.655513
   7       -2.515701
   8       -2.450494
   9        0.158178
  10        2.119464
  11        4.210242
  12        4.730374
  13        6.720791
  14        7.554185
  15        9.483324
  16       11.080508
 
  0.1666667E+00  0.5000000E+00  0.1666667E+00  0.4166667E-01
   1      -69.636625
   2      -69.619094
   3      -69.597820
   4       -2.751601
   5       -2.699140
   6       -2.651017
   7       -2.625841
   8       -2.519361
   9       -1.371842
  10        0.409093
  11        6.308112
  12        6.577765
  13        8.524937
  14        9.282614
  15       13.954462
  16       14.758359
 
  0.0000000E+00  0.5000000E+00  0.0000000E+00  0.4166667E-01
   1      -69.653958
   2      -69.573584
   3      -69.573584
   4       -3.039814
   5       -2.756916
   6       -2.579358
   7       -2.579358
   8       -2.461239
   9       -1.710422
  10       -0.271361
  11        8.486208
  12        8.486208
  13       11.166497
  14       11.500562
  15       11.781001
  16       12.143684
 
  0.5000000E+00  0.5000000E+00  0.0000000E+00  0.4166667E-01
   1      -69.609035
   2      -69.606226
   3      -69.606226
   4       -2.793379
   5       -2.778513
   6       -2.559238
   7       -2.559238
   8       -2.396407
   9        0.061477
  10        1.646086
  11        1.646086
  12        4.662057
  13       10.084976
  14       13.743115
  15       13.743115
  16       14.351230
 
  0.5000000E+00  0.5000000E+00  0.1666667E+00  0.4166667E-01
   1      -69.628281
   2      -69.622812
   3      -69.622812
   4       -2.781434
   5       -2.681758
   6       -2.612699
   7       -2.612699
   8       -2.403939
   9        0.299292
  10        1.970465
  11        1.970465
  12        4.942134
  13        7.974401
  14       10.794204
  15       10.794204
  16       12.226331
 
  0.5000000E+00  0.5000000E+00  0.3333333E+00  0.4166667E-01
   1      -69.641465
   2      -69.631308
   3      -69.631308
   4       -2.750461
   5       -2.710542
   6       -2.710542
   7       -2.481361
   8       -2.403626
   9        1.093899
  10        2.800503
  11        2.800503
  12        5.184706
  13        5.795197
  14        8.197642
  15        8.197642
  16        9.456948
 
  0.5000000E+00  0.5000000E+00  0.5000000E+00  0.4166667E-01
   1      -69.598684
   2      -69.598684
   3      -69.598684
   4       -2.732334
   5       -2.732334
   6       -2.732334
   7       -2.386666
   8       -2.386666
   9        2.125983
  10        3.430624
  11        3.430624
  12        3.430624
  13        6.994086
  14        6.994086
  15        6.994086
  16        7.614638
