       N       E                     dE             d eps       ncg     rms          rms(c)
DAV:   1     0.709321738604E+02    0.70932E+02   -0.95137E+03   968   0.658E+02
DAV:   2    -0.312244923203E+00   -0.71244E+02   -0.64884E+02   872   0.220E+02
DAV:   3    -0.147419243267E+01   -0.11619E+01   -0.11606E+01   912   0.324E+01
DAV:   4    -0.148631579722E+01   -0.12123E-01   -0.12123E-01   912   0.314E+00
DAV:   5    -0.148662780872E+01   -0.31201E-03   -0.31201E-03   936   0.502E-01    0.256E+00
DAV:   6    -0.146042062732E+01    0.26207E-01   -0.97577E-01   792   0.125E+01    0.185E+00
DAV:   7    -0.141480677820E+01    0.45614E-01   -0.15352E-01   800   0.507E+00    0.353E-01
DAV:   8    -0.142112747021E+01   -0.63207E-02   -0.99371E-03   776   0.115E+00    0.237E-01
DAV:   9    -0.142033625935E+01    0.79121E-03   -0.16372E-03   872   0.506E-01    0.767E-02
DAV:  10    -0.142026832354E+01    0.67936E-04   -0.32382E-04   800   0.158E-01
   1 F= -.14202683E+01 E0= -.14152250E+01  d E =-.100867E-01
