   24   24    1    2
  0.7325833E+01  0.4607713E-09  0.6970724E-09  0.6197517E-09  0.5000000E-15
  1.000000000000000E-004
  CAR 
 unknown system                          
    164     70     99
 
 -0.6938894E-17  0.1250000E+00  0.3469447E-17  0.1428571E-01
    1      -45.800502    -45.800457   1.000000   1.000000
    2      -45.795257    -45.795212   1.000000   1.000000
    3      -45.048847    -45.048857   1.000000   1.000000
    4      -45.043366    -45.043377   1.000000   1.000000
    5      -22.927082    -22.927019   1.000000   1.000000
    6      -22.875795    -22.875735   1.000000   1.000000
    7      -22.639491    -22.639478   1.000000   1.000000
    8      -22.594417    -22.594372   1.000000   1.000000
    9      -22.592557    -22.592480   1.000000   1.000000
   10      -22.517238    -22.517187   1.000000   1.000000
   11      -22.431656    -22.431656   1.000000   1.000000
   12      -22.384713    -22.384714   1.000000   1.000000
   13      -21.689984    -21.689995   1.000000   1.000000
   14      -21.639181    -21.639194   1.000000   1.000000
   15      -21.554891    -21.554873   1.000000   1.000000
   16      -21.468692    -21.468676   1.000000   1.000000
   17      -14.588543    -14.588507   1.000000   1.000000
   18      -13.622380    -13.622346   1.000000   1.000000
   19      -12.155226    -12.155193   1.000000   1.000000
   20      -11.675497    -11.675471   1.000000   1.000000
   21      -11.630189    -11.630158   1.000000   1.000000
   22      -11.208024    -11.207999   1.000000   1.000000
   23      -10.482992    -10.482966   1.000000   1.000000
   24      -10.195275    -10.195253   1.000000   1.000000
   25       -9.948428     -9.948401   1.000000   1.000000
   26       -9.940702     -9.940687   1.000000   1.000000
   27       -9.915651     -9.915628   1.000000   1.000000
   28       -9.719575     -9.719556   1.000000   1.000000
   29       -9.577144     -9.577124   1.000000   1.000000
   30       -9.330203     -9.330185   1.000000   1.000000
   31       -8.571574     -8.571558   1.000000   1.000000
   32       -8.512878     -8.512863   1.000000   1.000000
   33       -1.694373     -1.694340   1.000000   1.000000
   34       -1.261708     -1.261674   1.000000   1.000000
   35       -1.002442     -1.002404   1.000000   1.000000
   36       -0.972017     -0.971977   1.000000   1.000000
   37        0.071749      0.071787   1.000000   1.000000
   38        0.417220      0.417270   1.000000   1.000000
   39        1.089550      1.089597   1.000000   1.000000
   40        1.090902      1.090941   1.000000   1.000000
   41        1.354420      1.354462   1.000000   1.000000
   42        1.614929      1.614971   1.000000   1.000000
   43        1.816372      1.816407   1.000000   1.000000
   44        2.167792      2.167832   1.000000   1.000000
   45        2.322532      2.322570   1.000000   1.000000
   46        2.485452      2.485492   1.000000   1.000000
   47        2.649565      2.649603   1.000000   1.000000
   48        2.878138      2.878172   1.000000   1.000000
   49        3.172803      3.172839   1.000000   1.000000
   50        3.302379      3.302413   1.000000   1.000000
   51        3.430907      3.430942   1.000000   1.000000
   52        3.866854      3.866882   1.000000   1.000000
   53        4.184883      4.184917   1.000000   1.000000
   54        4.196689      4.196721   1.000000   1.000000
   55        4.374055      4.374086   1.000000   1.000000
   56        4.467686      4.467715   1.000000   1.000000
   57        4.844783      4.844815   1.000000   1.000000
   58        5.037340      5.037367   1.000000   1.000000
   59        5.430482      5.430510   1.000000   1.000000
   60        5.557729      5.557757   1.000000   1.000000
   61        5.693845      5.693871   1.000000   1.000000
   62        5.764864      5.764893   1.000000   1.000000
   63        5.882696      5.882720   1.000000   1.000000
   64        5.991924      5.991949   1.000000   1.000000
   65        6.093422      6.093448   1.000000   1.000000
   66        6.150515      6.150539   1.000000   1.000000
   67        6.248334      6.248358   1.000000   1.000000
   68        6.377427      6.377452   1.000000   1.000000
   69        6.395344      6.395370   1.000000   1.000000
   70        6.891785      6.891805   1.000000   1.000000
   71        7.030388      7.030410   1.000000   1.000000
   72        7.092658      7.092677   1.000000   1.000000
   73        7.142079      7.142100   1.000000   1.000000
   74        7.669732      7.669748   1.000000   1.000000
   75        7.828557      7.828577   1.000000   1.000000
   76        7.880222      7.880239   1.000000   1.000000
   77        8.064057      8.064075   1.000000   1.000000
   78        8.308192      8.308209   1.000000   1.000000
   79        8.687215      8.687229   1.000000   1.000000
   80        8.826351      8.826363   1.000000   1.000000
   81       11.849008     11.849055   1.000000   1.000000
   82       11.903907     11.903957   1.000000   1.000000
   83       13.419888     13.419952   0.000000   0.000000
   84       13.865449     13.865506   0.000000   0.000000
   85       13.948130     13.948184   0.000000   0.000000
   86       14.036030     14.036083   0.000000   0.000000
   87       14.063447     14.063491   0.000000   0.000000
   88       14.197794     14.197848   0.000000   0.000000
   89       14.284007     14.284044   0.000000   0.000000
   90       14.444931     14.444951   0.000000   0.000000
   91       14.527671     14.527697   0.000000   0.000000
   92       14.781488     14.781534   0.000000   0.000000
   93       14.842797     14.842850   0.000000   0.000000
   94       15.189141     15.189177   0.000000   0.000000
   95       15.363462     15.363496   0.000000   0.000000
   96       15.511027     15.511065   0.000000   0.000000
   97       15.579112     15.579162   0.000000   0.000000
   98       15.774060     15.774110   0.000000   0.000000
   99       16.029857     16.029881   0.000000   0.000000
 
  0.1428571E+00  0.1250000E+00  0.1387779E-16  0.1428571E-01
    1      -45.800428    -45.800382   1.000000   1.000000
    2      -45.795200    -45.795155   1.000000   1.000000
    3      -45.048840    -45.048850   1.000000   1.000000
    4      -45.043375    -45.043386   1.000000   1.000000
    5      -22.926357    -22.926294   1.000000   1.000000
    6      -22.875342    -22.875282   1.000000   1.000000
    7      -22.649129    -22.649101   1.000000   1.000000
    8      -22.618909    -22.618859   1.000000   1.000000
    9      -22.577211    -22.577156   1.000000   1.000000
   10      -22.504448    -22.504401   1.000000   1.000000
   11      -22.431980    -22.431978   1.000000   1.000000
   12      -22.387420    -22.387421   1.000000   1.000000
   13      -21.694368    -21.694379   1.000000   1.000000
   14      -21.641128    -21.641141   1.000000   1.000000
   15      -21.553723    -21.553706   1.000000   1.000000
   16      -21.468610    -21.468594   1.000000   1.000000
   17      -14.489279    -14.489243   1.000000   1.000000
   18      -13.619848    -13.619815   1.000000   1.000000
   19      -12.158551    -12.158518   1.000000   1.000000
   20      -11.748177    -11.748146   1.000000   1.000000
   21      -11.632548    -11.632522   1.000000   1.000000
   22      -11.210550    -11.210525   1.000000   1.000000
   23      -10.471313    -10.471287   1.000000   1.000000
   24      -10.106904    -10.106882   1.000000   1.000000
   25      -10.066911    -10.066884   1.000000   1.000000
   26       -9.966643     -9.966621   1.000000   1.000000
   27       -9.861470     -9.861448   1.000000   1.000000
   28       -9.808338     -9.808331   1.000000   1.000000
   29       -9.606101     -9.606075   1.000000   1.000000
   30       -9.386840     -9.386821   1.000000   1.000000
   31       -8.554232     -8.554216   1.000000   1.000000
   32       -8.408765     -8.408751   1.000000   1.000000
   33       -1.703346     -1.703312   1.000000   1.000000
   34       -1.268123     -1.268092   1.000000   1.000000
   35       -1.098074     -1.098031   1.000000   1.000000
   36       -0.911644     -0.911606   1.000000   1.000000
   37        0.075122      0.075161   1.000000   1.000000
   38        0.610595      0.610644   1.000000   1.000000
   39        0.935845      0.935890   1.000000   1.000000
   40        1.196767      1.196811   1.000000   1.000000
   41        1.470500      1.470541   1.000000   1.000000
   42        1.601290      1.601327   1.000000   1.000000
   43        1.872010      1.872050   1.000000   1.000000
   44        2.183507      2.183545   1.000000   1.000000
   45        2.269552      2.269590   1.000000   1.000000
   46        2.442550      2.442591   1.000000   1.000000
   47        2.699139      2.699174   1.000000   1.000000
   48        2.804243      2.804280   1.000000   1.000000
   49        3.253134      3.253170   1.000000   1.000000
   50        3.432199      3.432235   1.000000   1.000000
   51        3.522161      3.522190   1.000000   1.000000
   52        3.765499      3.765535   1.000000   1.000000
   53        4.109500      4.109527   1.000000   1.000000
   54        4.228825      4.228853   1.000000   1.000000
   55        4.373801      4.373841   1.000000   1.000000
   56        4.528732      4.528764   1.000000   1.000000
   57        4.921037      4.921063   1.000000   1.000000
   58        5.062534      5.062564   1.000000   1.000000
   59        5.332594      5.332617   1.000000   1.000000
   60        5.529693      5.529731   1.000000   1.000000
   61        5.581829      5.581855   1.000000   1.000000
   62        5.624840      5.624861   1.000000   1.000000
   63        5.773509      5.773540   1.000000   1.000000
   64        6.021182      6.021205   1.000000   1.000000
   65        6.067731      6.067754   1.000000   1.000000
   66        6.249046      6.249070   1.000000   1.000000
   67        6.293718      6.293741   1.000000   1.000000
   68        6.447247      6.447280   1.000000   1.000000
   69        6.578534      6.578553   1.000000   1.000000
   70        6.817900      6.817919   1.000000   1.000000
   71        6.922992      6.923009   1.000000   1.000000
   72        7.149765      7.149787   1.000000   1.000000
   73        7.274390      7.274411   1.000000   1.000000
   74        7.490423      7.490440   1.000000   1.000000
   75        7.757008      7.757027   1.000000   1.000000
   76        7.850161      7.850179   1.000000   1.000000
   77        7.986876      7.986900   1.000000   1.000000
   78        8.367143      8.367158   1.000000   1.000000
   79        8.623541      8.623549   1.000000   1.000000
   80        8.690320      8.690338   1.000000   1.000000
   81       11.819619     11.819662   1.000000   1.000000
   82       11.858270     11.858321   1.000000   1.000000
   83       13.480040     13.480104   0.000000   0.000000
   84       13.802053     13.802104   0.000000   0.000000
   85       13.928397     13.928460   0.000000   0.000000
   86       14.017512     14.017564   0.000000   0.000000
   87       14.119330     14.119379   0.000000   0.000000
   88       14.208226     14.208253   0.000000   0.000000
   89       14.255980     14.256026   0.000000   0.000000
   90       14.435946     14.435984   0.000000   0.000000
   91       14.529603     14.529633   0.000000   0.000000
   92       14.839147     14.839196   0.000000   0.000000
   93       14.867980     14.868025   0.000000   0.000000
   94       15.146392     15.146427   0.000000   0.000000
   95       15.293827     15.293860   0.000000   0.000000
   96       15.469966     15.470028   0.000000   0.000000
   97       15.543380     15.543428   0.000000   0.000000
   98       15.841624     15.841651   0.000000   0.000000
   99       16.002317     16.002348   0.000000   0.000000
 
  0.2857143E+00  0.1250000E+00  0.2775558E-16  0.1428571E-01
    1      -45.800264    -45.800218   1.000000   1.000000
    2      -45.795070    -45.795025   1.000000   1.000000
    3      -45.048826    -45.048836   1.000000   1.000000
    4      -45.043393    -45.043404   1.000000   1.000000
    5      -22.924936    -22.924873   1.000000   1.000000
    6      -22.874285    -22.874224   1.000000   1.000000
    7      -22.676641    -22.676596   1.000000   1.000000
    8      -22.640510    -22.640465   1.000000   1.000000
    9      -22.562240    -22.562201   1.000000   1.000000
   10      -22.481931    -22.481888   1.000000   1.000000
   11      -22.433514    -22.433505   1.000000   1.000000
   12      -22.394677    -22.394676   1.000000   1.000000
   13      -21.703362    -21.703373   1.000000   1.000000
   14      -21.645517    -21.645529   1.000000   1.000000
   15      -21.550851    -21.550834   1.000000   1.000000
   16      -21.468521    -21.468504   1.000000   1.000000
   17      -14.238815    -14.238779   1.000000   1.000000
   18      -13.618026    -13.617992   1.000000   1.000000
   19      -12.159882    -12.159849   1.000000   1.000000
   20      -11.959220    -11.959188   1.000000   1.000000
   21      -11.549532    -11.549506   1.000000   1.000000
   22      -11.219815    -11.219791   1.000000   1.000000
   23      -10.567566    -10.567543   1.000000   1.000000
   24      -10.405775    -10.405744   1.000000   1.000000
   25      -10.045942    -10.045919   1.000000   1.000000
   26       -9.908784     -9.908762   1.000000   1.000000
   27       -9.820665     -9.820653   1.000000   1.000000
   28       -9.724689     -9.724676   1.000000   1.000000
   29       -9.620685     -9.620649   1.000000   1.000000
   30       -9.529972     -9.529957   1.000000   1.000000
   31       -8.466634     -8.466619   1.000000   1.000000
   32       -8.299616     -8.299602   1.000000   1.000000
   33       -1.701309     -1.701275   1.000000   1.000000
   34       -1.365213     -1.365182   1.000000   1.000000
   35       -1.147357     -1.147315   1.000000   1.000000
   36       -0.921720     -0.921681   1.000000   1.000000
   37        0.093181      0.093222   1.000000   1.000000
   38        0.598184      0.598229   1.000000   1.000000
   39        1.119939      1.119980   1.000000   1.000000
   40        1.474753      1.474791   1.000000   1.000000
   41        1.610193      1.610240   1.000000   1.000000
   42        1.763236      1.763275   1.000000   1.000000
   43        2.008204      2.008242   1.000000   1.000000
   44        2.125808      2.125852   1.000000   1.000000
   45        2.213054      2.213084   1.000000   1.000000
   46        2.353131      2.353171   1.000000   1.000000
   47        2.647396      2.647431   1.000000   1.000000
   48        2.981056      2.981093   1.000000   1.000000
   49        3.229357      3.229397   1.000000   1.000000
   50        3.296942      3.296976   1.000000   1.000000
   51        3.606700      3.606731   1.000000   1.000000
   52        4.026010      4.026042   1.000000   1.000000
   53        4.201424      4.201457   1.000000   1.000000
   54        4.297155      4.297180   1.000000   1.000000
   55        4.445443      4.445484   1.000000   1.000000
   56        4.623219      4.623246   1.000000   1.000000
   57        4.803516      4.803548   1.000000   1.000000
   58        5.015661      5.015684   1.000000   1.000000
   59        5.060390      5.060421   1.000000   1.000000
   60        5.367887      5.367918   1.000000   1.000000
   61        5.494789      5.494816   1.000000   1.000000
   62        5.600003      5.600029   1.000000   1.000000
   63        5.757798      5.757826   1.000000   1.000000
   64        6.001327      6.001357   1.000000   1.000000
   65        6.146250      6.146270   1.000000   1.000000
   66        6.224257      6.224281   1.000000   1.000000
   67        6.352428      6.352448   1.000000   1.000000
   68        6.528480      6.528507   1.000000   1.000000
   69        6.579754      6.579780   1.000000   1.000000
   70        6.725335      6.725354   1.000000   1.000000
   71        6.920073      6.920089   1.000000   1.000000
   72        7.101562      7.101590   1.000000   1.000000
   73        7.177538      7.177560   1.000000   1.000000
   74        7.395031      7.395049   1.000000   1.000000
   75        7.688670      7.688688   1.000000   1.000000
   76        7.804739      7.804762   1.000000   1.000000
   77        8.019379      8.019393   1.000000   1.000000
   78        8.285777      8.285793   1.000000   1.000000
   79        8.439508      8.439522   1.000000   1.000000
   80        8.518065      8.518083   1.000000   1.000000
   81       11.734853     11.734883   1.000000   1.000000
   82       11.774592     11.774652   1.000000   1.000000
   83       13.586171     13.586238   0.000000   0.000000
   84       13.720018     13.720073   0.000000   0.000000
   85       13.847520     13.847561   0.000000   0.000000
   86       13.940039     13.940081   0.000000   0.000000
   87       14.042638     14.042693   0.000000   0.000000
   88       14.255116     14.255171   0.000000   0.000000
   89       14.345589     14.345632   0.000000   0.000000
   90       14.458470     14.458504   0.000000   0.000000
   91       14.668268     14.668300   0.000000   0.000000
   92       14.767142     14.767193   0.000000   0.000000
   93       14.873956     14.874001   0.000000   0.000000
   94       15.018553     15.018597   0.000000   0.000000
   95       15.233020     15.233051   0.000000   0.000000
   96       15.454143     15.454203   0.000000   0.000000
   97       15.488652     15.488696   0.000000   0.000000
   98       15.871391     15.871407   0.000000   0.000000
   99       16.051715     16.051748   0.000000   0.000000
 
  0.4285714E+00  0.1250000E+00 -0.6938894E-16  0.1428571E-01
    1      -45.800130    -45.800084   1.000000   1.000000
    2      -45.794968    -45.794923   1.000000   1.000000
    3      -45.048811    -45.048822   1.000000   1.000000
    4      -45.043410    -45.043421   1.000000   1.000000
    5      -22.924040    -22.923977   1.000000   1.000000
    6      -22.873322    -22.873260   1.000000   1.000000
    7      -22.699220    -22.699171   1.000000   1.000000
    8      -22.653212    -22.653165   1.000000   1.000000
    9      -22.550066    -22.550036   1.000000   1.000000
   10      -22.464509    -22.464467   1.000000   1.000000
   11      -22.437018    -22.437005   1.000000   1.000000
   12      -22.402042    -22.402040   1.000000   1.000000
   13      -21.709777    -21.709788   1.000000   1.000000
   14      -21.649006    -21.649019   1.000000   1.000000
   15      -21.548305    -21.548287   1.000000   1.000000
   16      -21.468556    -21.468539   1.000000   1.000000
   17      -13.992922    -13.992887   1.000000   1.000000
   18      -13.626614    -13.626581   1.000000   1.000000
   19      -12.152030    -12.151998   1.000000   1.000000
   20      -12.102591    -12.102559   1.000000   1.000000
   21      -11.498941    -11.498915   1.000000   1.000000
   22      -11.224469    -11.224445   1.000000   1.000000
   23      -10.961268    -10.961241   1.000000   1.000000
   24      -10.266394    -10.266365   1.000000   1.000000
   25      -10.125231    -10.125210   1.000000   1.000000
   26       -9.848098     -9.848095   1.000000   1.000000
   27       -9.821370     -9.821339   1.000000   1.000000
   28       -9.769889     -9.769863   1.000000   1.000000
   29       -9.660251     -9.660233   1.000000   1.000000
   30       -9.454961     -9.454942   1.000000   1.000000
   31       -8.382505     -8.382490   1.000000   1.000000
   32       -8.268517     -8.268503   1.000000   1.000000
   33       -1.705194     -1.705159   1.000000   1.000000
   34       -1.489930     -1.489897   1.000000   1.000000
   35       -1.098138     -1.098098   1.000000   1.000000
   36       -0.977634     -0.977594   1.000000   1.000000
   37        0.191778      0.191822   1.000000   1.000000
   38        0.427132      0.427172   1.000000   1.000000
   39        1.045348      1.045388   1.000000   1.000000
   40        1.541483      1.541526   1.000000   1.000000
   41        1.786782      1.786826   1.000000   1.000000
   42        1.911398      1.911435   1.000000   1.000000
   43        2.145342      2.145378   1.000000   1.000000
   44        2.257483      2.257518   1.000000   1.000000
   45        2.423754      2.423793   1.000000   1.000000
   46        2.622089      2.622133   1.000000   1.000000
   47        2.721224      2.721256   1.000000   1.000000
   48        2.946704      2.946745   1.000000   1.000000
   49        3.064503      3.064534   1.000000   1.000000
   50        3.416169      3.416207   1.000000   1.000000
   51        3.680159      3.680193   1.000000   1.000000
   52        4.075062      4.075090   1.000000   1.000000
   53        4.163649      4.163679   1.000000   1.000000
   54        4.361686      4.361725   1.000000   1.000000
   55        4.439769      4.439804   1.000000   1.000000
   56        4.537647      4.537675   1.000000   1.000000
   57        4.747405      4.747442   1.000000   1.000000
   58        4.811255      4.811273   1.000000   1.000000
   59        5.012988      5.013015   1.000000   1.000000
   60        5.211948      5.211985   1.000000   1.000000
   61        5.428834      5.428857   1.000000   1.000000
   62        5.514592      5.514619   1.000000   1.000000
   63        5.821762      5.821783   1.000000   1.000000
   64        5.897625      5.897656   1.000000   1.000000
   65        6.141447      6.141453   1.000000   1.000000
   66        6.156998      6.157038   1.000000   1.000000
   67        6.254761      6.254794   1.000000   1.000000
   68        6.645985      6.646005   1.000000   1.000000
   69        6.707429      6.707454   1.000000   1.000000
   70        6.912362      6.912377   1.000000   1.000000
   71        6.976619      6.976642   1.000000   1.000000
   72        7.039781      7.039809   1.000000   1.000000
   73        7.288486      7.288509   1.000000   1.000000
   74        7.307338      7.307357   1.000000   1.000000
   75        7.498140      7.498159   1.000000   1.000000
   76        7.626022      7.626043   1.000000   1.000000
   77        7.859790      7.859802   1.000000   1.000000
   78        8.063000      8.063017   1.000000   1.000000
   79        8.446978      8.446997   1.000000   1.000000
   80        8.562622      8.562637   1.000000   1.000000
   81       11.656759     11.656796   1.000000   1.000000
   82       11.721754     11.721808   1.000000   1.000000
   83       13.570319     13.570372   0.000000   0.000000
   84       13.670197     13.670261   0.000000   0.000000
   85       13.777858     13.777903   0.000000   0.000000
   86       13.873023     13.873064   0.000000   0.000000
   87       14.163837     14.163882   0.000000   0.000000
   88       14.218363     14.218425   0.000000   0.000000
   89       14.417536     14.417592   0.000000   0.000000
   90       14.442504     14.442537   0.000000   0.000000
   91       14.660081     14.660112   0.000000   0.000000
   92       14.755276     14.755318   0.000000   0.000000
   93       14.853897     14.853952   0.000000   0.000000
   94       14.923672     14.923714   0.000000   0.000000
   95       15.226857     15.226886   0.000000   0.000000
   96       15.391271     15.391306   0.000000   0.000000
   97       15.525870     15.525928   0.000000   0.000000
   98       15.951854     15.951876   0.000000   0.000000
   99       16.090108     16.090138   0.000000   0.000000
 
 -0.4285714E+00  0.1250000E+00  0.3469447E-16  0.1428571E-01
    1      -45.800130    -45.800084   1.000000   1.000000
    2      -45.794968    -45.794923   1.000000   1.000000
    3      -45.048811    -45.048822   1.000000   1.000000
    4      -45.043410    -45.043421   1.000000   1.000000
    5      -22.924038    -22.923975   1.000000   1.000000
    6      -22.873325    -22.873264   1.000000   1.000000
    7      -22.699221    -22.699172   1.000000   1.000000
    8      -22.653207    -22.653161   1.000000   1.000000
    9      -22.550068    -22.550038   1.000000   1.000000
   10      -22.464529    -22.464488   1.000000   1.000000
   11      -22.436988    -22.436976   1.000000   1.000000
   12      -22.402052    -22.402049   1.000000   1.000000
   13      -21.709779    -21.709790   1.000000   1.000000
   14      -21.649001    -21.649013   1.000000   1.000000
   15      -21.548310    -21.548292   1.000000   1.000000
   16      -21.468554    -21.468538   1.000000   1.000000
   17      -13.992914    -13.992879   1.000000   1.000000
   18      -13.626623    -13.626590   1.000000   1.000000
   19      -12.152002    -12.151970   1.000000   1.000000
   20      -12.102624    -12.102592   1.000000   1.000000
   21      -11.498930    -11.498904   1.000000   1.000000
   22      -11.224471    -11.224446   1.000000   1.000000
   23      -10.961292    -10.961266   1.000000   1.000000
   24      -10.265967    -10.265945   1.000000   1.000000
   25      -10.125777    -10.125752   1.000000   1.000000
   26       -9.848416     -9.848379   1.000000   1.000000
   27       -9.821140     -9.821129   1.000000   1.000000
   28       -9.769500     -9.769487   1.000000   1.000000
   29       -9.660374     -9.660354   1.000000   1.000000
   30       -9.455000     -9.454981   1.000000   1.000000
   31       -8.382525     -8.382509   1.000000   1.000000
   32       -8.268497     -8.268482   1.000000   1.000000
   33       -1.705195     -1.705161   1.000000   1.000000
   34       -1.489928     -1.489894   1.000000   1.000000
   35       -1.098116     -1.098076   1.000000   1.000000
   36       -0.977661     -0.977621   1.000000   1.000000
   37        0.192096      0.192140   1.000000   1.000000
   38        0.426617      0.426655   1.000000   1.000000
   39        1.045510      1.045551   1.000000   1.000000
   40        1.541406      1.541448   1.000000   1.000000
   41        1.786896      1.786932   1.000000   1.000000
   42        1.911612      1.911655   1.000000   1.000000
   43        2.145261      2.145303   1.000000   1.000000
   44        2.257610      2.257651   1.000000   1.000000
   45        2.423749      2.423787   1.000000   1.000000
   46        2.621899      2.621926   1.000000   1.000000
   47        2.721178      2.721214   1.000000   1.000000
   48        2.946599      2.946638   1.000000   1.000000
   49        3.064529      3.064571   1.000000   1.000000
   50        3.416136      3.416171   1.000000   1.000000
   51        3.680280      3.680313   1.000000   1.000000
   52        4.075007      4.075041   1.000000   1.000000
   53        4.163541      4.163576   1.000000   1.000000
   54        4.361692      4.361713   1.000000   1.000000
   55        4.439993      4.440025   1.000000   1.000000
   56        4.537601      4.537637   1.000000   1.000000
   57        4.747345      4.747370   1.000000   1.000000
   58        4.811334      4.811371   1.000000   1.000000
   59        5.013082      5.013108   1.000000   1.000000
   60        5.211716      5.211734   1.000000   1.000000
   61        5.429000      5.429033   1.000000   1.000000
   62        5.514406      5.514431   1.000000   1.000000
   63        5.821608      5.821640   1.000000   1.000000
   64        5.897784      5.897804   1.000000   1.000000
   65        6.141538      6.141584   1.000000   1.000000
   66        6.156972      6.156987   1.000000   1.000000
   67        6.254738      6.254762   1.000000   1.000000
   68        6.645706      6.645731   1.000000   1.000000
   69        6.707754      6.707779   1.000000   1.000000
   70        6.912261      6.912291   1.000000   1.000000
   71        6.976947      6.976965   1.000000   1.000000
   72        7.039781      7.039796   1.000000   1.000000
   73        7.288501      7.288515   1.000000   1.000000
   74        7.306764      7.306781   1.000000   1.000000
   75        7.498693      7.498715   1.000000   1.000000
   76        7.625801      7.625819   1.000000   1.000000
   77        7.859791      7.859814   1.000000   1.000000
   78        8.063060      8.063080   1.000000   1.000000
   79        8.446892      8.446904   1.000000   1.000000
   80        8.562650      8.562667   1.000000   1.000000
   81       11.656691     11.656747   1.000000   1.000000
   82       11.721820     11.721856   1.000000   1.000000
   83       13.570314     13.570362   0.000000   0.000000
   84       13.670286     13.670341   0.000000   0.000000
   85       13.777753     13.777819   0.000000   0.000000
   86       13.873039     13.873083   0.000000   0.000000
   87       14.163860     14.163915   0.000000   0.000000
   88       14.218388     14.218428   0.000000   0.000000
   89       14.417661     14.417699   0.000000   0.000000
   90       14.442286     14.442323   0.000000   0.000000
   91       14.659933     14.659978   0.000000   0.000000
   92       14.755521     14.755564   0.000000   0.000000
   93       14.853903     14.853965   0.000000   0.000000
   94       14.923618     14.923650   0.000000   0.000000
   95       15.226859     15.226895   0.000000   0.000000
   96       15.391275     15.391301   0.000000   0.000000
   97       15.525879     15.525927   0.000000   0.000000
   98       15.951853     15.951888   0.000000   0.000000
   99       16.090105     16.090161   0.000000   0.000000
 
 -0.2857143E+00  0.1250000E+00  0.2081668E-16  0.1428571E-01
    1      -45.800264    -45.800218   1.000000   1.000000
    2      -45.795070    -45.795025   1.000000   1.000000
    3      -45.048826    -45.048836   1.000000   1.000000
    4      -45.043393    -45.043404   1.000000   1.000000
    5      -22.924932    -22.924869   1.000000   1.000000
    6      -22.874291    -22.874230   1.000000   1.000000
    7      -22.676646    -22.676601   1.000000   1.000000
    8      -22.640494    -22.640448   1.000000   1.000000
    9      -22.562248    -22.562209   1.000000   1.000000
   10      -22.481949    -22.481906   1.000000   1.000000
   11      -22.433485    -22.433476   1.000000   1.000000
   12      -22.394689    -22.394688   1.000000   1.000000