 vasp.5.4.1 05Feb16 (build Nov 01 2017 19:46:48) complex                        
  
 executed on     INTEL16_impi_mkl date 2018.08.21  10:49:08
 running on   24 total cores
 distrk:  each k-point on   24 cores,    1 groups
 distr:  one band on NCORES_PER_BAND=   8 cores,    3 groups


--------------------------------------------------------------------------------------------------------


 INCAR:
 POTCAR:    PAW P 26Mar2009                       
 POTCAR:    PAW O 22Mar2012                       
 POTCAR:    PAW Ti_sv 26Sep2005                   
 POTCAR:    PAW P 26Mar2009                       
   VRHFIN =P : s2p3                                                             
   LEXCH  = CA                                                                  
   EATOM  =   176.5121 eV,   12.9733 Ry                                         
                                                                                
   TITEL  = PAW P 26Mar2009                                                     
   LULTRA =        F    use ultrasoft PP ?                                      
   IUNSCR =        1    unscreen: 0-lin 1-nonlin 2-no                           
   RPACOR =    1.500    partial core radius                                     
   POMASS =   30.974; ZVAL   =    5.000    mass and valenz                      
   RCORE  =    1.900    outmost cutoff radius                                   
   RWIGS  =    2.330; RWIGS  =    1.233    wigner-seitz radius (au A)           
   ENMAX  =  255.155; ENMIN  =  191.366 eV                                      
   ICORE  =        2    local potential                                         
   LCOR   =        T    correct aug charges                                     
   LPAW   =        T    paw PP                                                  
   EAUG   =  342.924                                                            
   DEXC   =    0.000                                                            
   RMAX   =    1.935    core radius for proj-oper                               
   RAUG   =    1.300    factor for augmentation sphere                          
   RDEP   =    1.931    radius for radial grids                                 
   RDEPT  =    1.780    core radius for aug-charge                              
                                                                                
   Atomic configuration                                                         
    6 entries                                                                   
     n  l   j            E        occ.                                          
     1  0  0.50     -2072.7761   2.0000                                         
     2  0  0.50      -172.9483   2.0000                                         
     2  1  1.50      -124.4644   6.0000                                         
     3  0  0.50       -14.0086   2.0000                                         
     3  1  0.50        -5.6037   3.0000                                         
     3  2  1.50        -6.8029   0.0000                                         
   Description                                                                  
     l       E           TYP  RCUT    TYP  RCUT                                 
     0    -14.0086211     23  1.900                                             
     0    -11.8189335     23  1.900                                             
     1     -5.6037292     23  1.900                                             
     1     -0.3527308     23  1.900                                             
     2     -6.8029130     23  1.900                                             
  local pseudopotential read in
  partial core-charges read in
  partial kinetic energy density read in
  atomic valenz-charges read in
  non local Contribution for L=           0  read in
    real space projection operators read in
  non local Contribution for L=           0  read in
    real space projection operators read in
  non local Contribution for L=           1  read in
    real space projection operators read in
  non local Contribution for L=           1  read in
    real space projection operators read in
    PAW grid and wavefunctions read in
 
   number of l-projection  operators is LMAX  =           4
   number of lm-projection operators is LMMAX =           8
 
 POTCAR:    PAW O 22Mar2012                       
   VRHFIN =O: s2p4                                                              
   LEXCH  = CA                                                                  
   EATOM  =   431.4380 eV,   31.7098 Ry                                         
                                                                                
   TITEL  = PAW O 22Mar2012                                                     
   LULTRA =        F    use ultrasoft PP ?                                      
   IUNSCR =        1    unscreen: 0-lin 1-nonlin 2-no                           
   RPACOR =    1.200    partial core radius                                     
   POMASS =   16.000; ZVAL   =    6.000    mass and valenz                      
   RCORE  =    1.520    outmost cutoff radius                                   
   RWIGS  =    1.550; RWIGS  =    0.820    wigner-seitz radius (au A)           
   ENMAX  =  400.000; ENMIN  =  300.000 eV                                      
   ICORE  =        2    local potential                                         
   LCOR   =        T    correct aug charges                                     
   LPAW   =        T    paw PP                                                  
   EAUG   =  605.392                                                            
   DEXC   =    0.000                                                            
   RMAX   =    1.553    core radius for proj-oper                               
   RAUG   =    1.300    factor for augmentation sphere                          
   RDEP   =    1.550    radius for radial grids                                 
   RDEPT  =    1.329    core radius for aug-charge                              
                                                                                
   Atomic configuration                                                         
    4 entries                                                                   
     n  l   j            E        occ.                                          
     1  0  0.50      -510.4605   2.0000                                         
     2  0  0.50       -23.7367   2.0000                                         
     2  1  0.50        -9.1995   4.0000                                         
     3  2  1.50        -9.5241   0.0000                                         
   Description                                                                  
     l       E           TYP  RCUT    TYP  RCUT                                 
     0    -23.7366993     23  1.200                                             
     0     -9.5240782     23  1.200                                             
     1     -9.1994509     23  1.520                                             
     1      8.1634956     23  1.520                                             
     2     -9.5240782      7  1.500                                             
  local pseudopotential read in
  partial core-charges read in
  partial kinetic energy density read in
  kinetic energy density of atom read in
  atomic valenz-charges read in
  non local Contribution for L=           0  read in
    real space projection operators read in
  non local Contribution for L=           0  read in
    real space projection operators read in
  non local Contribution for L=           1  read in
    real space projection operators read in
  non local Contribution for L=           1  read in
    real space projection operators read in
    PAW grid and wavefunctions read in
 
   number of l-projection  operators is LMAX  =           4
   number of lm-projection operators is LMMAX =           8
 
 POTCAR:    PAW Ti_sv 26Sep2005                   
   VRHFIN =Ti: 3s3p4s3d                                                         
   LEXCH  = CA                                                                  
   EATOM  =  1588.8698 eV,  116.7786 Ry                                         
                                                                                
   TITEL  = PAW Ti_sv 26Sep2005                                                 
   LULTRA =        F    use ultrasoft PP ?                                      
   IUNSCR =        1    unscreen: 0-lin 1-nonlin 2-no                           
   RPACOR =    2.000    partial core radius                                     
   POMASS =   47.880; ZVAL   =   12.000    mass and valenz                      
   RCORE  =    2.300    outmost cutoff radius                                   
   RWIGS  =    2.300; RWIGS  =    1.217    wigner-seitz radius (au A)           
   ENMAX  =  274.719; ENMIN  =  206.039 eV                                      
   ICORE  =        3    local potential                                         
   LCOR   =        T    correct aug charges                                     
   LPAW   =        T    paw PP                                                  
   EAUG   =  482.848                                                            
   RMAX   =    2.348    core radius for proj-oper                               
   RAUG   =    1.300    factor for augmentation sphere                          
   RDEP   =    2.381    radius for radial grids                                 
   RDEPT  =    1.930    core radius for aug-charge                              
                                                                                
   Atomic configuration                                                         
    8 entries                                                                   
     n  l   j            E        occ.                                          
     1  0  0.50     -4841.5915   2.0000                                         
     2  0  0.50      -530.7755   2.0000                                         
     2  1  1.50      -439.8260   6.0000                                         
     3  0  0.50       -58.8300   2.0000                                         
     4  0  0.50        -3.8733   1.0000                                         
     3  1  1.50       -35.5746   6.0000                                         
     3  2  2.50        -2.0952   3.0000                                         
     4  3  2.50        -1.3606   0.0000                                         
   Description                                                                  
     l       E           TYP  RCUT    TYP  RCUT                                 
     0    -58.8300472     23  1.800                                             
     0     -3.8733026     23  2.300                                             
     1    -35.5746147     23  2.300                                             
     1     -1.3605826     23  2.300                                             
     2     -2.0951860     23  2.300                                             
     2     -0.1606077     23  2.300                                             
     3     -1.3605826     23  2.300                                             
  local pseudopotential read in
  partial core-charges read in
  partial kinetic energy density read in
  atomic valenz-charges read in
  non local Contribution for L=           0  read in
    real space projection operators read in
  non local Contribution for L=           0  read in
    real space projection operators read in
  non local Contribution for L=           1  read in
    real space projection operators read in
  non local Contribution for L=           1  read in
    real space projection operators read in
  non local Contribution for L=           2  read in
    real space projection operators read in
  non local Contribution for L=           2  read in
    real space projection operators read in
    PAW grid and wavefunctions read in
 
   number of l-projection  operators is LMAX  =           6
   number of lm-projection operators is LMMAX =          18
 

 ----------------------------------------------------------------------------- 
|                                                                             |
|  ADVICE TO THIS USER RUNNING 'VASP/VAMP'   (HEAR YOUR MASTER'S VOICE ...):  |
|                                                                             |
|      You have a (more or less) 'large supercell' and for larger cells       |
|      it might be more efficient to use real space projection opertators     |
|      So try LREAL= Auto  in the INCAR   file.                               |
|      Mind: At the moment your POTCAR file does not contain real space       |
|       projectors, and has to be modified,  BUT if you                       |
|      want to do an extremely  accurate calculation you might also keep the  |
|      reciprocal projection scheme          (i.e. LREAL=.FALSE.)             |
|                                                                             |
 ----------------------------------------------------------------------------- 

  PAW P 26Mar2009                       :
 energy of atom  1       EATOM= -176.5121
 kinetic energy error for atom=    0.0010 (will be added to EATOM!!)
  PAW O 22Mar2012                       :
 energy of atom  2       EATOM= -431.4380
 kinetic energy error for atom=    0.0204 (will be added to EATOM!!)
  PAW Ti_sv 26Sep2005                   :
 energy of atom  3       EATOM=-1588.8698
 kinetic energy error for atom=    0.0042 (will be added to EATOM!!)
 
 
 POSCAR: Generated by cif2cell 1.2.10. ? :  Faile
  positions in direct lattice
  velocities in cartesian coordinates
 exchange correlation table for  LEXCH =        2
   RHO(1)=    0.500       N(1)  =     2000
   RHO(2)=  100.500       N(2)  =     4000
 


--------------------------------------------------------------------------------------------------------


 ion  position               nearest neighbor table
   1  0.961  0.225  0.656-  13 1.52  17 1.53   9 1.53   5 1.64   7 1.68  24 2.66  21 2.77  23 2.87

   2  0.039  0.775  0.344-  14 1.52  18 1.53  10 1.53   6 1.64   8 1.68  23 2.66  22 2.77  24 2.87

   3  0.961  0.275  0.156-  15 1.52  19 1.53  11 1.53   7 1.64   5 1.68  22 2.66  23 2.77  21 2.87

   4  0.039  0.725  0.844-  16 1.52  20 1.53  12 1.53   8 1.64   6 1.68  21 2.66  24 2.77  22 2.87

   5  0.978  0.168  0.919-   1 1.64   3 1.68  21 1.99  22 2.22
   6  0.022  0.832  0.081-   2 1.64   4 1.68  22 1.99  21 2.22
   7  0.978  0.332  0.419-   3 1.64   1 1.68  23 1.99  24 2.22
   8  0.022  0.668  0.581-   4 1.64   2 1.68  24 1.99  23 2.22
   9  0.337  0.224  0.771-   1 1.53  24 1.96  21 1.98
  10  0.663  0.776  0.229-   2 1.53  23 1.96  22 1.98
  11  0.337  0.276  0.271-   3 1.53  22 1.96  23 1.98
  12  0.663  0.724  0.729-   4 1.53  21 1.96  24 1.98
  13  0.767  0.044  0.541-   1 1.52  22 1.99  21 2.11
  14  0.233  0.956  0.459-   2 1.52  21 1.99  22 2.11
  15  0.767  0.456  0.041-   3 1.52  24 1.99  23 2.11
  16  0.233  0.544  0.959-   4 1.52  23 1.99  24 2.11
  17  0.744  0.397  0.635-   1 1.53  24 1.92  23 2.04
  18  0.256  0.603  0.365-   2 1.53  23 1.92  24 2.04
  19  0.744  0.103  0.135-   3 1.53  22 1.92  21 2.04
  20  0.256  0.897  0.865-   4 1.53  21 1.92  22 2.04
  21  0.597  0.990  0.797-  20 1.92  12 1.96   9 1.98  14 1.99   5 1.99  19 2.04  13 2.11   6 2.22
                             4 2.66   1 2.77   3 2.87
  22  0.403  0.010  0.203-  19 1.92  11 1.96  10 1.98  13 1.99   6 1.99  20 2.04  14 2.11   5 2.22
                             3 2.66   2 2.77   4 2.87
  23  0.597  0.510  0.297-  18 1.92  10 1.96  11 1.98  16 1.99   7 1.99  17 2.04  15 2.11   8 2.22
                             2 2.66   3 2.77   1 2.87
  24  0.403  0.490  0.703-  17 1.92   9 1.96  12 1.98  15 1.99   8 1.99  18 2.04  16 2.11   7 2.22
                             1 2.66   4 2.77   2 2.87
 
  LATTYP: Found a simple monoclinic cell.
 ALAT       =     5.7324271939
 B/A-ratio  =     1.2160161401
 C/A-ratio  =     1.0811330777
 COS(beta)  =    -0.7042415778
  
  Lattice vectors:
  
 A1 = (   1.8542748520,   5.2542148627,  -1.3474466529)
 A2 = (   3.0482897336,  -2.5449406416,  -5.7290662216)
 A3 = (  -5.1039551153,  -3.2829840935,  -1.2573266525)


Analysis of symmetry for initial positions (statically):
=====================================================================
 Subroutine PRICEL returns:
 Original cell was already a primitive cell.
 

 Routine SETGRP: Setting up the symmetry group for a 
 simple monoclinic supercell.


 Subroutine GETGRP returns: Found  1 space group operations
 (whereof  1 operations were pure point group operations)
 out of a pool of  4 trial point group operations.


The static configuration has the point symmetry C_1 .


Analysis of symmetry for dynamics (positions and initial velocities):
=====================================================================
 Subroutine PRICEL returns:
 Original cell was already a primitive cell.
 

 Routine SETGRP: Setting up the symmetry group for a 
 simple monoclinic supercell.


 Subroutine GETGRP returns: Found  1 space group operations
 (whereof  1 operations were pure point group operations)
 out of a pool of  4 trial point group operations.


The dynamic configuration has the point symmetry C_1 .


Analysis of structural, dynamic, and magnetic symmetry:
=====================================================================
 Subroutine PRICEL returns:
 Original cell was already a primitive cell.
 

 Routine SETGRP: Setting up the symmetry group for a 
 simple monoclinic supercell.


 Subroutine GETGRP returns: Found  1 space group operations
 (whereof  1 operations were pure point group operations)
 out of a pool of  4 trial point group operations.


The magnetic configuration has the point symmetry C_1 .


 Subroutine INISYM returns: Found  1 space group operations
 (whereof  1 operations are pure point group operations),
 and found     1 'primitive' translations

 
 
 KPOINTS: Automatic mesh                          

Automatic generation of k-mesh.
Space group operators:
 irot       det(A)        alpha          n_x          n_y          n_z        tau_x        tau_y        tau_z
    1     1.000000     0.000000     1.000000     0.000000     0.000000     0.000000     0.000000     0.000000
 
 Subroutine IBZKPT returns following result:
 ===========================================
 
 Found     70 irreducible k-points:
 
 Following reciprocal coordinates:
            Coordinates               Weight
 -0.000000  0.125000  0.000000      2.000000
  0.142857  0.125000  0.000000      2.000000
  0.285714  0.125000  0.000000      2.000000
  0.428571  0.125000 -0.000000      2.000000
 -0.428571  0.125000  0.000000      2.000000
 -0.285714  0.125000  0.000000      2.000000
 -0.142857  0.125000  0.000000      2.000000
 -0.000000  0.375000  0.000000      2.000000
  0.142857  0.375000  0.000000      2.000000
  0.285714  0.375000  0.000000      2.000000
  0.428571  0.375000 -0.000000      2.000000
 -0.428571  0.375000 -0.000000      2.000000
 -0.285714  0.375000 -0.000000      2.000000
 -0.142857  0.375000  0.000000      2.000000
  0.000000  0.125000  0.200000      2.000000
  0.142857  0.125000  0.200000      2.000000
  0.285714  0.125000  0.200000      2.000000
  0.428571  0.125000  0.200000      2.000000
 -0.428571  0.125000  0.200000      2.000000
 -0.285714  0.125000  0.200000      2.000000
 -0.142857  0.125000  0.200000      2.000000
 -0.000000  0.375000  0.200000      2.000000
  0.142857  0.375000  0.200000      2.000000
  0.285714  0.375000  0.200000      2.000000
  0.428571  0.375000  0.200000      2.000000
 -0.428571  0.375000  0.200000      2.000000
 -0.285714  0.375000  0.200000      2.000000
 -0.142857  0.375000  0.200000      2.000000
  0.000000 -0.375000  0.200000      2.000000
  0.142857 -0.375000  0.200000      2.000000
  0.285714 -0.375000  0.200000      2.000000
  0.428571 -0.375000  0.200000      2.000000
 -0.428571 -0.375000  0.200000      2.000000
 -0.285714 -0.375000  0.200000      2.000000
 -0.142857 -0.375000  0.200000      2.000000
  0.000000 -0.125000  0.200000      2.000000
  0.142857 -0.125000  0.200000      2.000000
  0.285714 -0.125000  0.200000      2.000000
  0.428571 -0.125000  0.200000      2.000000
 -0.428571 -0.125000  0.200000      2.000000
 -0.285714 -0.125000  0.200000      2.000000
 -0.142857 -0.125000  0.200000      2.000000
  0.000000  0.125000  0.400000      2.000000
  0.142857  0.125000  0.400000      2.000000
  0.285714  0.125000  0.400000      2.000000
  0.428571  0.125000  0.400000      2.000000
 -0.428571  0.125000  0.400000      2.000000
 -0.285714  0.125000  0.400000      2.000000
 -0.142857  0.125000  0.400000      2.000000
  0.000000  0.375000  0.400000      2.000000
  0.142857  0.375000  0.400000      2.000000
  0.285714  0.375000  0.400000      2.000000
  0.428571  0.375000  0.400000      2.000000
 -0.428571  0.375000  0.400000      2.000000
 -0.285714  0.375000  0.400000      2.000000
 -0.142857  0.375000  0.400000      2.000000
  0.000000 -0.375000  0.400000      2.000000
  0.142857 -0.375000  0.400000      2.000000
  0.285714 -0.375000  0.400000      2.000000
  0.428571 -0.375000  0.400000      2.000000
 -0.428571 -0.375000  0.400000      2.000000
 -0.285714 -0.375000  0.400000      2.000000
 -0.142857 -0.375000  0.400000      2.000000
 -0.000000 -0.125000  0.400000      2.000000
  0.142857 -0.125000  0.400000      2.000000
  0.285714 -0.125000  0.400000      2.000000
  0.428571 -0.125000  0.400000      2.000000
 -0.428571 -0.125000  0.400000      2.000000
 -0.285714 -0.125000  0.400000      2.000000
 -0.142857 -0.125000  0.400000      2.000000
 
 Following cartesian coordinates:
            Coordinates               Weight
 -0.036265  0.030277  0.068157      2.000000
  0.022386 -0.094000  0.154569      2.000000
  0.081036 -0.218276  0.240981      2.000000
  0.139687 -0.342553  0.327394      2.000000
 -0.212217  0.403108 -0.191080      2.000000
 -0.153566  0.278831 -0.104667      2.000000
 -0.094916  0.154554 -0.018255      2.000000
 -0.108795  0.090832  0.204471      2.000000
 -0.050145 -0.033445  0.290883      2.000000
  0.008506 -0.157722  0.377295      2.000000
  0.067157 -0.281999  0.463708      2.000000
 -0.284747  0.463662 -0.054766      2.000000
 -0.226097  0.339385  0.031646      2.000000
 -0.167446  0.215109  0.118059      2.000000
 -0.130547 -0.109433  0.080053      2.000000
 -0.071897 -0.233710  0.166465      2.000000
 -0.013246 -0.357986  0.252878      2.000000
  0.045405 -0.482263  0.339290      2.000000
 -0.306499  0.263398 -0.179184      2.000000
 -0.247849  0.139121 -0.092771      2.000000
 -0.189198  0.014844 -0.006359      2.000000
 -0.203078 -0.048878  0.216367      2.000000
 -0.144427 -0.173155  0.302779      2.000000
 -0.085776 -0.297432  0.389191      2.000000
 -0.027126 -0.421709  0.475604      2.000000
 -0.379030  0.323952 -0.042870      2.000000
 -0.320379  0.199675  0.043543      2.000000
 -0.261728  0.075399  0.129955      2.000000
  0.014513 -0.230542 -0.192575      2.000000
  0.073164 -0.354819 -0.106163      2.000000
  0.131814 -0.479096 -0.019750      2.000000
  0.190465 -0.603372  0.066662      2.000000
 -0.161439  0.142288 -0.451811      2.000000
 -0.102788  0.018012 -0.365399      2.000000
 -0.044138 -0.106265 -0.278987      2.000000
 -0.058017 -0.169987 -0.056261      2.000000
  0.000633 -0.294264  0.030151      2.000000
  0.059284 -0.418541  0.116564      2.000000
  0.117935 -0.542818  0.202976      2.000000
 -0.233969  0.202843 -0.315497      2.000000
 -0.175319  0.078566 -0.229085      2.000000
 -0.116668 -0.045711 -0.142673      2.000000
 -0.224830 -0.249143  0.091949      2.000000
 -0.166179 -0.373420  0.178361      2.000000
 -0.107529 -0.497697  0.264774      2.000000
 -0.048878 -0.621973  0.351186      2.000000
 -0.400782  0.123687 -0.167287      2.000000
 -0.342131 -0.000589 -0.080875      2.000000
 -0.283481 -0.124866  0.005537      2.000000
 -0.297360 -0.188588  0.228263      2.000000
 -0.238709 -0.312865  0.314675      2.000000
 -0.180059 -0.437142  0.401088      2.000000
 -0.121408 -0.561419  0.487500      2.000000
 -0.473312  0.184242 -0.030973      2.000000
 -0.414661  0.059965  0.055439      2.000000
 -0.356011 -0.064312  0.141851      2.000000
 -0.079770 -0.370252 -0.180679      2.000000
 -0.021119 -0.494529 -0.094266      2.000000
  0.037532 -0.618806 -0.007854      2.000000
  0.096182 -0.743082  0.078558      2.000000
 -0.255722  0.002578 -0.439915      2.000000
 -0.197071 -0.121698 -0.353503      2.000000
 -0.138420 -0.245975 -0.267091      2.000000
 -0.152300 -0.309697 -0.044365      2.000000
 -0.093649 -0.433974  0.042048      2.000000
 -0.034998 -0.558251  0.128460      2.000000
  0.023652 -0.682528  0.214872      2.000000
 -0.328252  0.063133 -0.303601      2.000000
 -0.269601 -0.061144 -0.217189      2.000000
 -0.210950 -0.185421 -0.130777      2.000000
 
 TETIRR: Found    416 inequivalent tetrahedra from      840


--------------------------------------------------------------------------------------------------------




 Dimension of arrays:
   k-points           NKPTS =     70   k-points in BZ     NKDIM =     70   number of bands    NBANDS=     99
   number of dos      NEDOS =   4500   number of ions     NIONS =     24
   non local maximal  LDIM  =      6   non local SUM 2l+1 LMDIM =     18
   total plane-waves  NPLWV =  93312
   max r-space proj   IRMAX =      1   max aug-charges    IRDMAX=  20802
   dimension x,y,z NGX =    36 NGY =   54 NGZ =   48
   dimension x,y,z NGXF=    72 NGYF=  108 NGZF=   96
   support grid    NGXF=    72 NGYF=  108 NGZF=   96
   ions per type =               4  16   4
 NGX,Y,Z   is equivalent  to a cutoff of  12.99, 12.88, 12.88 a.u.
 NGXF,Y,Z  is equivalent  to a cutoff of  25.98, 25.76, 25.75 a.u.


 I would recommend the setting:
   dimension x,y,z NGX =    34 NGY =   52 NGZ =   46
 SYSTEM =  unknown system                          
 POSCAR =  Generated by cif2cell 1.2.10. ? :  Faile

 Startparameter for this run:
   NWRITE =      2    write-flag & timer
   PREC   = accura    normal or accurate (medium, high low for compatibility)
   ISTART =      1    job   : 0-new  1-cont  2-samecut
   ICHARG =      2    charge: 1-file 2-atom 10-const
   ISPIN  =      2    spin polarized calculation?
   LNONCOLLINEAR =      F non collinear calculations
   LSORBIT =      F    spin-orbit coupling
   INIWAV =      1    electr: 0-lowe 1-rand  2-diag
   LASPH  =      F    aspherical Exc in radial PAW
   METAGGA=      F    non-selfconsistent MetaGGA calc.

 Electronic Relaxation 1
   ENCUT  =  520.0 eV  38.22 Ry    6.18 a.u.   8.57 12.96 11.52*2*pi/ulx,y,z
   ENINI  =  520.0     initial cutoff
   ENAUG  =  605.4 eV  augmentation charge cutoff
   NELM   =     60;   NELMIN=  2; NELMDL= -5     # of ELM steps 
   EDIFF  = 0.1E-04   stopping-criterion for ELM
   LREAL  =      F    real-space projection
   NLSPLINE    = F    spline interpolate recip. space projectors
   LCOMPAT=      F    compatible to vasp.4.4
   GGA_COMPAT  = T    GGA compatible to vasp.4.4-vasp.4.6
   LMAXPAW     = -100 max onsite density
   LMAXMIX     =    2 max onsite mixed and CHGCAR
   VOSKOWN=      0    Vosko Wilk Nusair interpolation
   ROPT   =    0.00000   0.00000   0.00000
 Ionic relaxation
   EDIFFG = 0.1E-03   stopping-criterion for IOM
   NSW    =      0    number of steps for IOM
   NBLOCK =      1;   KBLOCK =      1    inner block; outer block 
   IBRION =     -1    ionic relax: 0-MD 1-quasi-New 2-CG
   NFREE  =      0    steps in history (QN), initial steepest desc. (CG)
   ISIF   =      4    stress and relaxation
   IWAVPR =     10    prediction:  0-non 1-charg 2-wave 3-comb
   ISYM   =      2    0-nonsym 1-usesym 2-fastsym
   LCORR  =      T    Harris-Foulkes like correction to forces

   POTIM  = 0.5000    time-step for ionic-motion
   TEIN   =    0.0    initial temperature
   TEBEG  =    0.0;   TEEND  =   0.0 temperature during run
   SMASS  =  -3.00    Nose mass-parameter (am)
   estimated Nose-frequenzy (Omega)   =  0.10E-29 period in steps =****** mass=  -0.485E-27a.u.
   SCALEE = 1.0000    scale energy and forces
   NPACO  =    256;   APACO  = 16.0  distance and # of slots for P.C.
   PSTRESS=    0.0 pullay stress

  Mass of Ions in am
   POMASS =  30.97 16.00 47.88
  Ionic Valenz
   ZVAL   =   5.00  6.00 12.00
  Atomic Wigner-Seitz radii
   RWIGS  =  -1.00 -1.00 -1.00
  virtual crystal weights 
   VCA    =   1.00  1.00  1.00
   NELECT =     164.0000    total number of electrons
   NUPDOWN=      -1.0000    fix difference up-down

 DOS related values:
   EMIN   =  10.00;   EMAX   =-10.00  energy-range for DOS
   EFERMI =   0.00
   ISMEAR =    -5;   SIGMA  =   0.20  broadening in eV -4-tet -1-fermi 0-gaus

 Electronic relaxation 2 (details)
   IALGO  =     38    algorithm
   LDIAG  =      T    sub-space diagonalisation (order eigenvalues)
   LSUBROT=      F    optimize rotation matrix (better conditioning)
   TURBO    =      0    0=normal 1=particle mesh
   IRESTART =      0    0=no restart 2=restart with 2 vectors
   NREBOOT  =      0    no. of reboots
   NMIN     =      0    reboot dimension
   EREF     =   0.00    reference energy to select bands
   IMIX   =      4    mixing-type and parameters
     AMIX     =   0.40;   BMIX     =  1.00
     AMIX_MAG =   1.60;   BMIX_MAG =  1.00
     AMIN     =   0.10
     WC   =   100.;   INIMIX=   1;  MIXPRE=   1;  MAXMIX= -45

 Intra band minimization:
   WEIMIN = 0.0000     energy-eigenvalue tresh-hold
   EBREAK =  0.25E-07  absolut break condition
   DEPER  =   0.30     relativ break condition  

   TIME   =   0.40     timestep for ELM

  volume/ion in A,a.u.               =       7.33        49.44
  Fermi-wavevector in a.u.,A,eV,Ry     =   1.599558  3.022727 34.811678  2.558586
  Thomas-Fermi vector in A             =   2.696832
 
 Write flags
   LWAVE  =      T    write WAVECAR
   LCHARG =      T    write CHGCAR
   LVTOT  =      F    write LOCPOT, total local potential
   LVHAR  =      F    write LOCPOT, Hartree potential only
   LELF   =      F    write electronic localiz. function (ELF)
   LORBIT =     11    0 simple, 1 ext, 2 COOP (PROOUT)


 Dipole corrections
   LMONO  =      F    monopole corrections only (constant potential shift)
   LDIPOL =      F    correct potential (dipole corrections)
   IDIPOL =      0    1-x, 2-y, 3-z, 4-all directions 
   EPSILON=  1.0000000 bulk dielectric constant

 LDA+U is selected, type is set to LDAUTYPE =  2
   angular momentum for each species LDAUL =     2    2    2
   U (eV)           for each species LDAUU =   2.0  2.0  2.0
   J (eV)           for each species LDAUJ =   0.0  0.0  0.0
 Exchange correlation treatment:
   GGA     =    --    GGA type
   LEXCH   =     2    internal setting for exchange type
   VOSKOWN=      0    Vosko Wilk Nusair interpolation
   LHFCALC =     F    Hartree Fock is set to
   LHFONE  =     F    Hartree Fock one center treatment
   AEXX    =    0.0000 exact exchange contribution

 Linear response parameters
   LEPSILON=     F    determine dielectric tensor
   LRPA    =     F    only Hartree local field effects (RPA)
   LNABLA  =     F    use nabla operator in PAW spheres
   LVEL    =     F    velocity operator in full k-point grid
   LINTERFAST=   F  fast interpolation
   KINTER  =     0    interpolate to denser k-point grid
   CSHIFT  =0.1000    complex shift for real part using Kramers Kronig
   OMEGAMAX=  -1.0    maximum frequency
   DEG_THRESHOLD= 0.2000000E-02 threshold for treating states as degnerate
   RTIME   =    0.100 relaxation time in fs

 Orbital magnetization related:
   ORBITALMAG=     F  switch on orbital magnetization
   LCHIMAG   =     F  perturbation theory with respect to B field
   DQ        =  0.001000  dq finite difference perturbation B field



--------------------------------------------------------------------------------------------------------


 Static calculation
 charge density and potential will be updated during run
 spin polarized calculation
 Variant of blocked Davidson
 Davidson routine will perform the subspace rotation
 perform sub-space diagonalisation
    after iterative eigenvector-optimisation
 modified Broyden-mixing scheme, WC =      100.0
 initial mixing is a Kerker type mixing with AMIX =  0.4000 and BMIX =      1.0000
 Hartree-type preconditioning will be used
 using additional bands           17
 reciprocal scheme for non local part
 use partial core corrections
 calculate Harris-corrections to forces 
   (improved forces if not selfconsistent)
 use of overlap-Matrix (Vanderbilt PP)
 Fermi weights with tetrahedron method with Bloechl corrections


--------------------------------------------------------------------------------------------------------


  energy-cutoff  :      520.00
  volume of cell :      175.82
      direct lattice vectors                 reciprocal lattice vectors
     3.249680263 -1.971230769  2.604773305     0.088776087 -0.188110527  0.130797119
    -3.048289734  2.544940642  5.729066222    -0.062734105  0.052375932  0.117903094
    -5.103955115 -3.282984093 -1.257326653    -0.101935531 -0.151050718  0.012861795

  length of vectors
     4.607712722  6.970723990  6.197516655     0.245712536  0.143457122  0.182681684


 
 old parameters found on file WAVECAR:
  energy-cutoff  :      520.00
  volume of cell :      175.82
      direct lattice vectors                 reciprocal lattice vectors
     3.249680263 -1.971230769  2.604773305     0.088776087 -0.188110527  0.130797119
    -3.048289734  2.544940642  5.729066222    -0.062734105  0.052375932  0.117903094
    -5.103955115 -3.282984093 -1.257326653    -0.101935531 -0.151050718  0.012861795

  length of vectors

 
 k-points in units of 2pi/SCALE and weight: Automatic mesh                          
  -0.03626509  0.03027728  0.06815696       0.014
   0.02238558 -0.09399953  0.15456918       0.014
   0.08103625 -0.21827633  0.24098140       0.014
   0.13968692 -0.34255314  0.32739362       0.014
  -0.21221710  0.40310769 -0.19107969       0.014
  -0.15356643  0.27883088 -0.10466747       0.014
  -0.09491576  0.15455408 -0.01825526       0.014
  -0.10879526  0.09083183  0.20447089       0.014
  -0.05014459 -0.03344498  0.29088311       0.014
   0.00850608 -0.15772178  0.37729533       0.014
   0.06715675 -0.28199859  0.46370755       0.014
  -0.28474727  0.46366224 -0.05476577       0.014
  -0.22609660  0.33938544  0.03164645       0.014
  -0.16744593  0.21510863  0.11805867       0.014
  -0.13054748 -0.10943283  0.08005312       0.014
  -0.07189681 -0.23370963  0.16646534       0.014
  -0.01324614 -0.35798643  0.25287756       0.014
   0.04540453 -0.48226324  0.33928978       0.014
  -0.30649949  0.26339759 -0.17918354       0.014
  -0.24784882  0.13912078 -0.09277132       0.014
  -0.18919815  0.01484398 -0.00635910       0.014
  -0.20307766 -0.04887827  0.21636705       0.014
  -0.14442699 -0.17315508  0.30277926       0.014
  -0.08577632 -0.29743188  0.38919148       0.014
  -0.02712565 -0.42170869  0.47560370       0.014
  -0.37902967  0.32395214 -0.04286961       0.014
  -0.32037900  0.19967534  0.04354261       0.014
  -0.26172833  0.07539853  0.12995483       0.014
   0.01451287 -0.23054193 -0.19257474       0.014
   0.07316354 -0.35481873 -0.10616252       0.014
   0.13181421 -0.47909554 -0.01975030       0.014
   0.19046488 -0.60337234  0.06666192       0.014
  -0.16143914  0.14228848 -0.45181139       0.014
  -0.10278847  0.01801168 -0.36539917       0.014
  -0.04413780 -0.10626512 -0.27898695       0.014
  -0.05801731 -0.16998738 -0.05626081       0.014
   0.00063336 -0.29426418  0.03015141       0.014
   0.05928403 -0.41854099  0.11656363       0.014
   0.11793470 -0.54281779  0.20297585       0.014
  -0.23396932  0.20284304 -0.31549747       0.014
  -0.17531865  0.07856623 -0.22908525       0.014
  -0.11666798 -0.04571057 -0.14267303       0.014
  -0.22482988 -0.24914293  0.09194927       0.014
  -0.16617921 -0.37341973  0.17836149       0.014
  -0.10752854 -0.49769654  0.26477371       0.014
  -0.04887787 -0.62197334  0.35118593       0.014
  -0.40078189  0.12368749 -0.16728738       0.014
  -0.34213122 -0.00058932 -0.08087516       0.014
  -0.28348055 -0.12486612  0.00553705       0.014
  -0.29736005 -0.18858837  0.22826320       0.014
  -0.23870938 -0.31286518  0.31467542       0.014
  -0.18005871 -0.43714198  0.40108764       0.014
  -0.12140804 -0.56141879  0.48749986       0.014
  -0.47331206  0.18424204 -0.03097346       0.014
  -0.41466139  0.05996523  0.05543876       0.014
  -0.35601072 -0.06431157  0.14185098       0.014
  -0.07976952 -0.37025203 -0.18067858       0.014
  -0.02111885 -0.49452883 -0.09426636       0.014
   0.03753181 -0.61880564 -0.00785414       0.014
   0.09618248 -0.74308244  0.07855808       0.014
  -0.25572153  0.00257838 -0.43991524       0.014
  -0.19707086 -0.12169842 -0.35350302       0.014
  -0.13842019 -0.24597523 -0.26709080       0.014
  -0.15229970 -0.30969748 -0.04436465       0.014
  -0.09364903 -0.43397428  0.04204757       0.014
  -0.03499836 -0.55825109  0.12845978       0.014
   0.02365231 -0.68252789  0.21487200       0.014
  -0.32825171  0.06313294 -0.30360131       0.014
  -0.26960104 -0.06114387 -0.21718909       0.014
  -0.21095037 -0.18542067 -0.13077687       0.014
 
 k-points in reciprocal lattice and weights: Automatic mesh                          
  -0.00000000  0.12500000  0.00000000       0.014
   0.14285714  0.12500000  0.00000000       0.014
   0.28571429  0.12500000  0.00000000       0.014
   0.42857143  0.12500000 -0.00000000       0.014
  -0.42857143  0.12500000  0.00000000       0.014
  -0.28571429  0.12500000  0.00000000       0.014
  -0.14285714  0.12500000  0.00000000       0.014
  -0.00000000  0.37500000  0.00000000       0.014
   0.14285714  0.37500000  0.00000000       0.014
   0.28571429  0.37500000  0.00000000       0.014
   0.42857143  0.37500000 -0.00000000       0.014
  -0.42857143  0.37500000 -0.00000000       0.014
  -0.28571429  0.37500000 -0.00000000       0.014
  -0.14285714  0.37500000  0.00000000       0.014
   0.00000000  0.12500000  0.20000000       0.014
   0.14285714  0.12500000  0.20000000       0.014
   0.28571429  0.12500000  0.20000000       0.014
   0.42857143  0.12500000  0.20000000       0.014
  -0.42857143  0.12500000  0.20000000       0.014
  -0.28571429  0.12500000  0.20000000       0.014
  -0.14285714  0.12500000  0.20000000       0.014
  -0.00000000  0.37500000  0.20000000       0.014
   0.14285714  0.37500000  0.20000000       0.014
   0.28571429  0.37500000  0.20000000       0.014
   0.42857143  0.37500000  0.20000000       0.014
  -0.42857143  0.37500000  0.20000000       0.014
  -0.28571429  0.37500000  0.20000000       0.014
  -0.14285714  0.37500000  0.20000000       0.014
   0.00000000 -0.37500000  0.20000000       0.014
   0.14285714 -0.37500000  0.20000000       0.014
   0.28571429 -0.37500000  0.20000000       0.014
   0.42857143 -0.37500000  0.20000000       0.014
  -0.42857143 -0.37500000  0.20000000       0.014
  -0.28571429 -0.37500000  0.20000000       0.014
  -0.14285714 -0.37500000  0.20000000       0.014
   0.00000000 -0.12500000  0.20000000       0.014
   0.14285714 -0.12500000  0.20000000       0.014
   0.28571429 -0.12500000  0.20000000       0.014
   0.42857143 -0.12500000  0.20000000       0.014
  -0.42857143 -0.12500000  0.20000000       0.014
  -0.28571429 -0.12500000  0.20000000       0.014
  -0.14285714 -0.12500000  0.20000000       0.014
   0.00000000  0.12500000  0.40000000       0.014
   0.14285714  0.12500000  0.40000000       0.014
   0.28571429  0.12500000  0.40000000       0.014
   0.42857143  0.12500000  0.40000000       0.014
  -0.42857143  0.12500000  0.40000000       0.014
  -0.28571429  0.12500000  0.40000000       0.014
  -0.14285714  0.12500000  0.40000000       0.014
   0.00000000  0.37500000  0.40000000       0.014
   0.14285714  0.37500000  0.40000000       0.014
   0.28571429  0.37500000  0.40000000       0.014
   0.42857143  0.37500000  0.40000000       0.014
  -0.42857143  0.37500000  0.40000000       0.014
  -0.28571429  0.37500000  0.40000000       0.014
  -0.14285714  0.37500000  0.40000000       0.014
   0.00000000 -0.37500000  0.40000000       0.014
   0.14285714 -0.37500000  0.40000000       0.014
   0.28571429 -0.37500000  0.40000000       0.014
   0.42857143 -0.37500000  0.40000000       0.014
  -0.42857143 -0.37500000  0.40000000       0.014
  -0.28571429 -0.37500000  0.40000000       0.014
  -0.14285714 -0.37500000  0.40000000       0.014
  -0.00000000 -0.12500000  0.40000000       0.014
   0.14285714 -0.12500000  0.40000000       0.014
   0.28571429 -0.12500000  0.40000000       0.014
   0.42857143 -0.12500000  0.40000000       0.014
  -0.42857143 -0.12500000  0.40000000       0.014
  -0.28571429 -0.12500000  0.40000000       0.014
  -0.14285714 -0.12500000  0.40000000       0.014
 
 position of ions in fractional coordinates (direct lattice) 
   0.96126450  0.22504249  0.65611587
   0.03874286  0.77495729  0.34388643
   0.96126481  0.27497028  0.15611416
   0.03874255  0.72502998  0.84388813
   0.97792581  0.16849124  0.91856611
   0.02207456  0.83150878  0.08143428
   0.97792558  0.33150821  0.41856697
   0.02207482  0.66849177  0.58143341
   0.33729641  0.22362525  0.77138072
   0.66269971  0.77637516  0.22861791
   0.33729625  0.27637237  0.27138066
   0.66269984  0.72362718  0.72861795
   0.76701615  0.04385705  0.54089158
   0.23298211  0.95614145  0.45910718
   0.76702182  0.45613739  0.04089541
   0.23297646  0.54386410  0.95910333
   0.74358311  0.39653815  0.63531704
   0.25641506  0.60346362  0.36468322
   0.74357649  0.10345613  0.13531642
   0.25642163  0.89654209  0.86468384
   0.59664841  0.98984377  0.79688456
   0.40335134  0.01015685  0.20311514
   0.59665031  0.51015576  0.29688467
   0.40334942  0.48984362  0.70311500
 
 position of ions in cartesian coordinates  (Angst):
  -0.91097839 -3.47617234  2.96820744
  -3.99157333  0.76687549  4.10832041
   1.48881456 -1.70761204  3.88291336
  -6.39136770 -1.00168354  3.19361732
  -2.02398410 -4.51455517  2.35763488
  -2.87858132  1.80527899  4.71887858
   0.03106536 -2.45819698  3.92023154
  -4.93363055 -0.25107933  3.15628180
  -3.52266166 -2.62820672  1.18986699
  -1.37990980 -0.08105433  5.88663983
  -1.13147283 -0.85247586  2.12072177
  -3.77109604 -1.85678721  4.95578014
  -0.40181810 -3.17609070  1.56908576
  -4.50074128  0.46682016  5.50741557
   0.89340841 -0.48539341  4.55974039
  -5.79597670 -2.22386949  2.51677813
  -2.03498546 -2.54234357  3.40985774
  -2.86759178 -0.16692337  3.66666021
   1.41037263 -1.64671278  2.35941828
  -6.31293926 -1.06256309  4.71707918
  -5.14567706 -1.27319739  6.22307020
   0.24311129 -1.43607378  0.85344598
  -1.13146589 -0.85248698  4.10357389
  -3.77109605 -1.85678721  2.97293512
 


--------------------------------------------------------------------------------------------------------


 k-point  1 :  -0.0000 0.1250 0.0000  plane waves:    4760
 k-point  2 :   0.1429 0.1250 0.0000  plane waves:    4750
 k-point  3 :   0.2857 0.1250 0.0000  plane waves:    4736
 k-point  4 :   0.4286 0.1250-0.0000  plane waves:    4717
 k-point  5 :  -0.4286 0.1250 0.0000  plane waves:    4717
 k-point  6 :  -0.2857 0.1250 0.0000  plane waves:    4736
 k-point  7 :  -0.1429 0.1250 0.0000  plane waves:    4750
 k-point  8 :  -0.0000 0.3750 0.0000  plane waves:    4762
 k-point  9 :   0.1429 0.3750 0.0000  plane waves:    4741
 k-point 10 :   0.2857 0.3750 0.0000  plane waves:    4734
 k-point 11 :   0.4286 0.3750-0.0000  plane waves:    4735
 k-point 12 :  -0.4286 0.3750-0.0000  plane waves:    4734
 k-point 13 :  -0.2857 0.3750-0.0000  plane waves:    4734
 k-point 14 :  -0.1429 0.3750 0.0000  plane waves:    4741
 k-point 15 :   0.0000 0.1250 0.2000  plane waves:    4747
 k-point 16 :   0.1429 0.1250 0.2000  plane waves:    4732
 k-point 17 :   0.2857 0.1250 0.2000  plane waves:    4732
 k-point 18 :   0.4286 0.1250 0.2000  plane waves:    4723
 k-point 19 :  -0.4286 0.1250 0.2000  plane waves:    4721
 k-point 20 :  -0.2857 0.1250 0.2000  plane waves:    4731
 k-point 21 :  -0.1429 0.1250 0.2000  plane waves:    4743
 k-point 22 :  -0.0000 0.3750 0.2000  plane waves:    4743
 k-point 23 :   0.1429 0.3750 0.2000  plane waves:    4734
 k-point 24 :   0.2857 0.3750 0.2000  plane waves:    4743
 k-point 25 :   0.4286 0.3750 0.2000  plane waves:    4725
 k-point 26 :  -0.4286 0.3750 0.2000  plane waves:    4735
 k-point 27 :  -0.2857 0.3750 0.2000  plane waves:    4756
 k-point 28 :  -0.1429 0.3750 0.2000  plane waves:    4745
 k-point 29 :   0.0000-0.3750 0.2000  plane waves:    4743
 k-point 30 :   0.1429-0.3750 0.2000  plane waves:    4734
 k-point 31 :   0.2857-0.3750 0.2000  plane waves:    4743
 k-point 32 :   0.4286-0.3750 0.2000  plane waves:    4724
 k-point 33 :  -0.4286-0.3750 0.2000  plane waves:    4735
 k-point 34 :  -0.2857-0.3750 0.2000  plane waves:    4756
 k-point 35 :  -0.1429-0.3750 0.2000  plane waves:    4745
 k-point 36 :   0.0000-0.1250 0.2000  plane waves:    4747
 k-point 37 :   0.1429-0.1250 0.2000  plane waves:    4732
 k-point 38 :   0.2857-0.1250 0.2000  plane waves:    4732
 k-point 39 :   0.4286-0.1250 0.2000  plane waves:    4723
 k-point 40 :  -0.4286-0.1250 0.2000  plane waves:    4721
 k-point 41 :  -0.2857-0.1250 0.2000  plane waves:    4731
 k-point 42 :  -0.1429-0.1250 0.2000  plane waves:    4743
 k-point 43 :   0.0000 0.1250 0.4000  plane waves:    4739
 k-point 44 :   0.1429 0.1250 0.4000  plane waves:    4730
 k-point 45 :   0.2857 0.1250 0.4000  plane waves:    4724
 k-point 46 :   0.4286 0.1250 0.4000  plane waves:    4721
 k-point 47 :  -0.4286 0.1250 0.4000  plane waves:    4708
 k-point 48 :  -0.2857 0.1250 0.4000  plane waves:    4717
 k-point 49 :  -0.1429 0.1250 0.4000  plane waves:    4733
 k-point 50 :   0.0000 0.3750 0.4000  plane waves:    4730
 k-point 51 :   0.1429 0.3750 0.4000  plane waves:    4734
 k-point 52 :   0.2857 0.3750 0.4000  plane waves:    4729
 k-point 53 :   0.4286 0.3750 0.4000  plane waves:    4724
 k-point 54 :  -0.4286 0.3750 0.4000  plane waves:    4724
 k-point 55 :  -0.2857 0.3750 0.4000  plane waves:    4747
 k-point 56 :  -0.1429 0.3750 0.4000  plane waves:    4745
 k-point 57 :   0.0000-0.3750 0.4000  plane waves:    4730
 k-point 58 :   0.1429-0.3750 0.4000  plane waves:    4734
 k-point 59 :   0.2857-0.3750 0.4000  plane waves:    4729
 k-point 60 :   0.4286-0.3750 0.4000  plane waves:    4724
 k-point 61 :  -0.4286-0.3750 0.4000  plane waves:    4724
 k-point 62 :  -0.2857-0.3750 0.4000  plane waves:    4747
 k-point 63 :  -0.1429-0.3750 0.4000  plane waves:    4745
 k-point 64 :  -0.0000-0.1250 0.4000  plane waves:    4739
 k-point 65 :   0.1429-0.1250 0.4000  plane waves:    4731
 k-point 66 :   0.2857-0.1250 0.4000  plane waves:    4724
 k-point 67 :   0.4286-0.1250 0.4000  plane waves:    4721
 k-point 68 :  -0.4286-0.1250 0.4000  plane waves:    4708
 k-point 69 :  -0.2857-0.1250 0.4000  plane waves:    4717
 k-point 70 :  -0.1429-0.1250 0.4000  plane waves:    4733

 maximum and minimum number of plane-waves per node :       606      576

 maximum number of plane-waves:      4762
 maximum index in each direction: 
   IXMAX=    8   IYMAX=   13   IZMAX=   11
   IXMIN=   -8   IYMIN=  -13   IZMIN=  -11

 NGX is ok and might be reduce to  34
 NGY is ok and might be reduce to  54
 NGZ is ok and might be reduce to  46

 parallel 3D FFT for wavefunctions:
    minimum data exchange during FFTs selected (reduces bandwidth)
 parallel 3D FFT for charge:
    minimum data exchange during FFTs selected (reduces bandwidth)


 total amount of memory used by VASP on root node   101086. kBytes
========================================================================

   base      :      30000. kBytes
   nonl-proj :      18466. kBytes
   fftplans  :       1459. kBytes
   grid      :       3834. kBytes
   one-center:         93. kBytes
   wavefun   :      47234. kBytes
 
     INWAV:  cpu time    8.9440: real time    9.0272
 Broyden mixing: mesh for mixing (old mesh)
   NGX = 17   NGY = 25   NGZ = 23
  (NGX  = 72   NGY  =108   NGZ  = 96)
  gives a total of   9775 points

 initial charge density was supplied:
 charge density of overlapping atoms calculated
 number of electron     164.0000000 magnetization       2.0000000
 keeping initial charge density in first step


--------------------------------------------------------------------------------------------------------


 Maximum index for augmentation-charges          757 (set IRDMAX)


--------------------------------------------------------------------------------------------------------


 First call to EWALD:  gamma=   0.316
 Maximum number of real-space cells 4x 2x 3
 Maximum number of reciprocal cells 2x 3x 3

 FEWALD executed in parallel
    FEWALD:  cpu time    0.0000: real time    0.0049


----------------------------------------- Iteration    1(   1)  ---------------------------------------


    POTLOK:  cpu time    0.0200: real time    0.0359
    SETDIJ:  cpu time    0.0160: real time    0.0378
     EDDAV:  cpu time   41.7520: real time   41.8191
 BZINTS: Fermi energy: 14.733434;164.000000 electrons
         Band energy:-928.190752;  BLOECHL correction: -0.014584
       DOS:  cpu time    0.3680: real time    0.3746
    --------------------------------------------
      LOOP:  cpu time   42.1600: real time   42.3045

 eigenvalue-minimisations  : 41076
 total energy-change (2. order) :-0.2281507E+03  (-0.1546131E+02)
 number of electron     164.0000000 magnetization       2.0000000
 augmentation part      164.0000000 magnetization       2.0000000

 Free energy of the ion-electron system (eV)
  ---------------------------------------------------
  alpha Z        PSCENC =       711.48137369
  Ewald energy   TEWEN  =    -12095.06753575
  -Hartree energ DENC   =     -2685.64286352
  -exchange      EXHF   =         0.00000000
  -V(xc)+E(xc)   XCENC  =       738.10317791
  PAW double counting   =     11134.82865403   -11067.85097580
  entropy T*S    EENTRO =         0.00000000
  eigenvalues    EBANDS =      -928.19075179
  atomic energy  EATOM  =     13964.18822220
  Solvation  Ediel_sol  =         0.00000000
  ---------------------------------------------------
  free energy    TOTEN  =      -228.15069903 eV

  energy without entropy =     -228.15069903  energy(sigma->0) =     -228.15069903


--------------------------------------------------------------------------------------------------------




----------------------------------------- Iteration    1(   2)  ---------------------------------------


     EDDAV:  cpu time   37.4720: real time   37.4589
 BZINTS: Fermi energy: 14.706903;164.000000 electrons
         Band energy:-929.250903;  BLOECHL correction: -0.014621
       DOS:  cpu time    0.3640: real time    0.3648
    --------------------------------------------
      LOOP:  cpu time   37.8400: real time   37.8287

 eigenvalue-minimisations  : 36252
 total energy-change (2. order) :-0.1060151E+01  (-0.1058985E+01)
 number of electron     164.0000000 magnetization       2.0000000
 augmentation part      164.0000000 magnetization       2.0000000

 Free energy of the ion-electron system (eV)
  ---------------------------------------------------
  alpha Z        PSCENC =       711.48137369
  Ewald energy   TEWEN  =    -12095.06753575
  -Hartree energ DENC   =     -2685.64286352
  -exchange      EXHF   =         0.00000000
  -V(xc)+E(xc)   XCENC  =       738.10317791
  PAW double counting   =     11134.82865403   -11067.85097580
  entropy T*S    EENTRO =         0.00000000
  eigenvalues    EBANDS =      -929.25090276
  atomic energy  EATOM  =     13964.18822220
  Solvation  Ediel_sol  =         0.00000000
  ---------------------------------------------------
  free energy    TOTEN  =      -229.21085000 eV

  energy without entropy =     -229.21085000  energy(sigma->0) =     -229.21085000


--------------------------------------------------------------------------------------------------------




----------------------------------------- Iteration    1(   3)  ---------------------------------------


     EDDAV:  cpu time   42.5400: real time   42.5265
 BZINTS: Fermi energy: 14.706395;164.000000 electrons
         Band energy:-929.280102;  BLOECHL correction: -0.014608
       DOS:  cpu time    0.3560: real time    0.3556
    --------------------------------------------
      LOOP:  cpu time   42.9000: real time   42.8910

 eigenvalue-minimisations  : 41832
 total energy-change (2. order) :-0.2919972E-01  (-0.2919446E-01)
 number of electron     164.0000000 magnetization       2.0000000
 augmentation part      164.0000000 magnetization       2.0000000

 Free energy of the ion-electron system (eV)
  ---------------------------------------------------
  alpha Z        PSCENC =       711.48137369
  Ewald energy   TEWEN  =    -12095.06753575
  -Hartree energ DENC   =     -2685.64286352
  -exchange      EXHF   =         0.00000000
  -V(xc)+E(xc)   XCENC  =       738.10317791
  PAW double counting   =     11134.82865403   -11067.85097580
  entropy T*S    EENTRO =         0.00000000
  eigenvalues    EBANDS =      -929.28010248
  atomic energy  EATOM  =     13964.18822220
  Solvation  Ediel_sol  =         0.00000000
  ---------------------------------------------------
  free energy    TOTEN  =      -229.24004972 eV

  energy without entropy =     -229.24004972  energy(sigma->0) =     -229.24004972


--------------------------------------------------------------------------------------------------------




----------------------------------------- Iteration    1(   4)  ---------------------------------------


     EDDAV:  cpu time   40.0040: real time   39.9896
 BZINTS: Fermi energy: 14.706375;164.000000 electrons
         Band energy:-929.280852;  BLOECHL correction: -0.014608
       DOS:  cpu time    0.3760: real time    0.3723
    --------------------------------------------
      LOOP:  cpu time   40.3840: real time   40.3731

 eigenvalue-minimisations  : 38970
 total energy-change (2. order) :-0.7490824E-03  (-0.7480855E-03)
 number of electron     164.0000000 magnetization       2.0000000
 augmentation part      164.0000000 magnetization       2.0000000

 Free energy of the ion-electron system (eV)
  ---------------------------------------------------
  alpha Z        PSCENC =       711.48137369
  Ewald energy   TEWEN  =    -12095.06753575
  -Hartree energ DENC   =     -2685.64286352
  -exchange      EXHF   =         0.00000000
  -V(xc)+E(xc)   XCENC  =       738.10317791
  PAW double counting   =     11134.82865403   -11067.85097580
  entropy T*S    EENTRO =         0.00000000
  eigenvalues    EBANDS =      -929.28085156
  atomic energy  EATOM  =     13964.18822220
  Solvation  Ediel_sol  =         0.00000000
  ---------------------------------------------------
  free energy    TOTEN  =      -229.24079880 eV

  energy without entropy =     -229.24079880  energy(sigma->0) =     -229.24079880


--------------------------------------------------------------------------------------------------------




----------------------------------------- Iteration    1(   5)  ---------------------------------------


     EDDAV:  cpu time   37.8480: real time   37.8443
 BZINTS: Fermi energy: 14.706374;164.000000 electrons
         Band energy:-929.280871;  BLOECHL correction: -0.014608
       DOS:  cpu time    0.3720: real time    0.3725
    CHARGE:  cpu time    1.3760: real time    1.3850
    MIXING:  cpu time    0.0040: real time    0.0109
    --------------------------------------------
      LOOP:  cpu time   39.6040: real time   39.6223

 eigenvalue-minimisations  : 36648
 total energy-change (2. order) :-0.1975676E-04  (-0.1974747E-04)
 number of electron     164.0000011 magnetization       0.7281026
 augmentation part       25.9849783 magnetization       0.5742236

 Broyden mixing:
  rms(total) = 0.64509E+01    rms(broyden)= 0.64503E+01
  rms(prec ) = 0.78058E+01
  weight for this iteration     100.00

 Free energy of the ion-electron system (eV)
  ---------------------------------------------------
  alpha Z        PSCENC =       711.48137369
  Ewald energy   TEWEN  =    -12095.06753575
  -Hartree energ DENC   =     -2685.64286352
  -exchange      EXHF   =         0.00000000
  -V(xc)+E(xc)   XCENC  =       738.10317791
  PAW double counting   =     11134.82865403   -11067.85097580
  entropy T*S    EENTRO =         0.00000000
  eigenvalues    EBANDS =      -929.28087132
  atomic energy  EATOM  =     13964.18822220
  Solvation  Ediel_sol  =         0.00000000
  ---------------------------------------------------
  free energy    TOTEN  =      -229.24081856 eV

  energy without entropy =     -229.24081856  energy(sigma->0) =     -229.24081856


--------------------------------------------------------------------------------------------------------




----------------------------------------- Iteration    1(   6)  ---------------------------------------


    POTLOK:  cpu time    0.0160: real time    0.0167
    SETDIJ:  cpu time    0.0160: real time    0.0134
     EDDAV:  cpu time   42.3880: real time   42.3976
 BZINTS: Fermi energy: 12.005409;164.000000 electrons
         Band energy:-804.291427;  BLOECHL correction:  0.000000
       DOS:  cpu time    0.1160: real time    0.1185
    CHARGE:  cpu time    1.3560: real time    1.3557
    MIXING:  cpu time    0.0040: real time    0.0172
    --------------------------------------------
      LOOP:  cpu time   43.9000: real time   43.9281

 eigenvalue-minimisations  : 41526
 total energy-change (2. order) : 0.3445889E+02  (-0.1820018E+02)
 number of electron     164.0000011 magnetization       0.1703298
 augmentation part       25.6275839 magnetization       0.1653841

 Broyden mixing:
  rms(total) = 0.29542E+01    rms(broyden)= 0.29536E+01
  rms(prec ) = 0.30757E+01
  weight for this iteration     100.00

 eigenvalues of (default mixing * dielectric matrix)
  average eigenvalue GAMMA=   1.0520
  1.0520

 Free energy of the ion-electron system (eV)
  ---------------------------------------------------
  alpha Z        PSCENC =       711.48137369
  Ewald energy   TEWEN  =    -12095.06753575
  -Hartree energ DENC   =     -2771.97481841
  -exchange      EXHF   =         0.00000000
  -V(xc)+E(xc)   XCENC  =       750.13817667
  PAW double counting   =     16722.75779625   -16672.01371783
  entropy T*S    EENTRO =         0.00000000
  eigenvalues    EBANDS =      -804.29142720
  atomic energy  EATOM  =     13964.18822220
  Solvation  Ediel_sol  =         0.00000000
  ---------------------------------------------------
  free energy    TOTEN  =      -194.78193037 eV

  energy without entropy =     -194.78193037  energy(sigma->0) =     -194.78193037


--------------------------------------------------------------------------------------------------------




----------------------------------------- Iteration    1(   7)  ---------------------------------------


    POTLOK:  cpu time    0.0200: real time    0.0169
    SETDIJ:  cpu time    0.0120: real time    0.0135
     EDDAV:  cpu time   38.2240: real time   38.2305
 BZINTS: Fermi energy: 12.037896;164.000000 electrons
         Band energy:-773.894517;  BLOECHL correction:  0.000000
       DOS:  cpu time    0.1160: real time    0.1167
    CHARGE:  cpu time    1.3720: real time    1.3744
    MIXING:  cpu time    0.0040: real time    0.0066
    --------------------------------------------
      LOOP:  cpu time   39.7520: real time   39.7943

 eigenvalue-minimisations  : 37692
 total energy-change (2. order) :-0.1480271E+01  (-0.2416698E+01)
 number of electron     164.0000011 magnetization      -0.0264572
 augmentation part       24.4275268 magnetization      -0.0241920

 Broyden mixing:
  rms(total) = 0.15174E+01    rms(broyden)= 0.15174E+01
  rms(prec ) = 0.15727E+01
  weight for this iteration     100.00

 eigenvalues of (default mixing * dielectric matrix)
  average eigenvalue GAMMA=   1.1511
  1.5849  0.7172

 Free energy of the ion-electron system (eV)
  ---------------------------------------------------
  alpha Z        PSCENC =       711.48137369
  Ewald energy   TEWEN  =    -12095.06753575
  -Hartree energ DENC   =     -2806.34210742
  -exchange      EXHF   =         0.00000000
  -V(xc)+E(xc)   XCENC  =       752.41851002
  PAW double counting   =     21905.56995407   -21854.61610116
  entropy T*S    EENTRO =         0.00000000
  eigenvalues    EBANDS =      -773.89451659
  atomic energy  EATOM  =     13964.18822220
  Solvation  Ediel_sol  =         0.00000000
  ---------------------------------------------------
  free energy    TOTEN  =      -196.26220094 eV

  energy without entropy =     -196.26220094  energy(sigma->0) =     -196.26220094


--------------------------------------------------------------------------------------------------------




----------------------------------------- Iteration    1(   8)  ---------------------------------------


    POTLOK:  cpu time    0.0160: real time    0.0168
    SETDIJ:  cpu time    0.0160: real time    0.0135
     EDDAV:  cpu time   35.0720: real time   35.0771
 BZINTS: Fermi energy: 12.044099;164.000000 electrons
         Band energy:-778.371799;  BLOECHL correction:  0.000000
       DOS:  cpu time    0.1160: real time    0.1157
    CHARGE:  cpu time    1.3720: real time    1.3744
    MIXING:  cpu time    0.0040: real time    0.0016
    --------------------------------------------
      LOOP:  cpu time   36.5960: real time   36.6048

 eigenvalue-minimisations  : 34380
 total energy-change (2. order) : 0.4030007E-01  (-0.9609740E-01)
 number of electron     164.0000010 magnetization      -0.0297129
 augmentation part       24.4170423 magnetization      -0.0281538

 Broyden mixing:
  rms(total) = 0.59266E+00    rms(broyden)= 0.59265E+00
  rms(prec ) = 0.61849E+00
  weight for this iteration     100.00

 eigenvalues of (default mixing * dielectric matrix)
  average eigenvalue GAMMA=   1.2123
  1.8801  0.9908  0.7659

 Free energy of the ion-electron system (eV)
  ---------------------------------------------------
  alpha Z        PSCENC =       711.48137369
  Ewald energy   TEWEN  =    -12095.06753575
  -Hartree energ DENC   =     -2807.93124248
  -exchange      EXHF   =         0.00000000
  -V(xc)+E(xc)   XCENC  =       752.61217601
  PAW double counting   =     25734.04831856   -25677.18141391
  entropy T*S    EENTRO =         0.00000000
  eigenvalues    EBANDS =      -778.37179918
  atomic energy  EATOM  =     13964.18822220
  Solvation  Ediel_sol  =         0.00000000
  ---------------------------------------------------
  free energy    TOTEN  =      -196.22190086 eV

  energy without entropy =     -196.22190086  energy(sigma->0) =     -196.22190086


--------------------------------------------------------------------------------------------------------




----------------------------------------- Iteration    1(   9)  ---------------------------------------


    POTLOK:  cpu time    0.0160: real time    0.0166
    SETDIJ:  cpu time    0.0160: real time    0.0134
     EDDAV:  cpu time   44.2480: real time   44.2559
 BZINTS: Fermi energy: 11.921031;164.000000 electrons
         Band energy:-781.252491;  BLOECHL correction:  0.000000
       DOS:  cpu time    0.1160: real time    0.1156
    CHARGE:  cpu time    1.3760: real time    1.3775
    MIXING:  cpu time    0.0040: real time    0.0017
    --------------------------------------------
      LOOP:  cpu time   45.7760: real time   45.7875

 eigenvalue-minimisations  : 43686
 total energy-change (2. order) :-0.5655227E-02  (-0.1938721E-01)
 number of electron     164.0000010 magnetization      -0.0043835
 augmentation part       24.3974845 magnetization      -0.0043195

 Broyden mixing:
  rms(total) = 0.25237E+00    rms(broyden)= 0.25236E+00
  rms(prec ) = 0.26540E+00
  weight for this iteration     100.00

 eigenvalues of (default mixing * dielectric matrix)
  average eigenvalue GAMMA=   1.2310
  2.0788  1.2906  0.8527  0.7017

 Free energy of the ion-electron system (eV)
  ---------------------------------------------------
  alpha Z        PSCENC =       711.48137369
  Ewald energy   TEWEN  =    -12095.06753575
  -Hartree energ DENC   =     -2809.88897241
  -exchange      EXHF   =         0.00000000
  -V(xc)+E(xc)   XCENC  =       752.94098411
  PAW double counting   =     27359.16228236   -27297.79141897
  entropy T*S    EENTRO =         0.00000000
  eigenvalues    EBANDS =      -781.25249132
  atomic energy  EATOM  =     13964.18822220
  Solvation  Ediel_sol  =         0.00000000
  ---------------------------------------------------
  free energy    TOTEN  =      -196.22755609 eV

  energy without entropy =     -196.22755609  energy(sigma->0) =     -196.22755609


--------------------------------------------------------------------------------------------------------




----------------------------------------- Iteration    1(  10)  ---------------------------------------


    POTLOK:  cpu time    0.0160: real time    0.0167
    SETDIJ:  cpu time    0.0160: real time    0.0135
     EDDAV:  cpu time   38.7880: real time   38.7929
 BZINTS: Fermi energy: 11.959897;164.000000 electrons
         Band energy:-780.275983;  BLOECHL correction:  0.000000
       DOS:  cpu time    0.1160: real time    0.1157
    CHARGE:  cpu time    1.3800: real time    1.3773
    MIXING:  cpu time    0.0000: real time    0.0018
    --------------------------------------------
      LOOP:  cpu time   40.3160: real time   40.3256

 eigenvalue-minimisations  : 38142
 total energy-change (2. order) :-0.8057920E-02  (-0.3056772E-02)
 number of electron     164.0000010 magnetization       0.0054158
 augmentation part       24.3560217 magnetization       0.0058716

 Broyden mixing:
  rms(total) = 0.10263E+00    rms(broyden)= 0.10263E+00
  rms(prec ) = 0.10814E+00
  weight for this iteration     100.00

 eigenvalues of (default mixing * dielectric matrix)
  average eigenvalue GAMMA=   1.2589
  2.3382  1.5852  0.9304  0.7916  0.6492

 Free energy of the ion-electron system (eV)
  ---------------------------------------------------
  alpha Z        PSCENC =       711.48137369
  Ewald energy   TEWEN  =    -12095.06753575
  -Hartree energ DENC   =     -2813.67806081
  -exchange      EXHF   =         0.00000000
  -V(xc)+E(xc)   XCENC  =       753.17519712
  PAW double counting   =     27755.52270047   -27691.58152786
  entropy T*S    EENTRO =         0.00000000
  eigenvalues    EBANDS =      -780.27598308
  atomic energy  EATOM  =     13964.18822220
  Solvation  Ediel_sol  =         0.00000000
  ---------------------------------------------------
  free energy    TOTEN  =      -196.23561401 eV

  energy without entropy =     -196.23561401  energy(sigma->0) =     -196.23561401


--------------------------------------------------------------------------------------------------------




----------------------------------------- Iteration    1(  11)  ---------------------------------------


    POTLOK:  cpu time    0.0160: real time    0.0166
    SETDIJ:  cpu time    0.0120: real time    0.0135
     EDDAV:  cpu time   37.1600: real time   37.1619
 BZINTS: Fermi energy: 11.966902;164.000000 electrons
         Band energy:-779.760223;  BLOECHL correction:  0.000000
       DOS:  cpu time    0.1160: real time    0.1159
    CHARGE:  cpu time    1.3920: real time    1.3948
    MIXING:  cpu time    0.0040: real time    0.0055
    --------------------------------------------
      LOOP:  cpu time   38.7040: real time   38.7497

 eigenvalue-minimisations  : 36270
 total energy-change (2. order) :-0.1404857E-02  (-0.5179569E-03)
 number of electron     164.0000010 magnetization       0.0042882
 augmentation part       24.3399696 magnetization       0.0040464

 Broyden mixing:
  rms(total) = 0.29631E-01    rms(broyden)= 0.29627E-01
  rms(prec ) = 0.31733E-01
  weight for this iteration     100.00

 eigenvalues of (default mixing * dielectric matrix)
  average eigenvalue GAMMA=   1.2810
  2.5515  1.8145  0.9505  0.9505  0.7722  0.6468

 Free energy of the ion-electron system (eV)
  ---------------------------------------------------
  alpha Z        PSCENC =       711.48137369
  Ewald energy   TEWEN  =    -12095.06753575
  -Hartree energ DENC   =     -2816.41588099
  -exchange      EXHF   =         0.00000000
  -V(xc)+E(xc)   XCENC  =       753.35317131
  PAW double counting   =     27926.70315071   -27860.71929688
  entropy T*S    EENTRO =         0.00000000
  eigenvalues    EBANDS =      -779.76022316
  atomic energy  EATOM  =     13964.18822220
  Solvation  Ediel_sol  =         0.00000000
  ---------------------------------------------------
  free energy    TOTEN  =      -196.23701887 eV

  energy without entropy =     -196.23701887  energy(sigma->0) =     -196.23701887


--------------------------------------------------------------------------------------------------------




----------------------------------------- Iteration    1(  12)  ---------------------------------------


    POTLOK:  cpu time    0.0160: real time    0.0166
    SETDIJ:  cpu time    0.0160: real time    0.0135
     EDDAV:  cpu time   39.9880: real time   39.9945
 BZINTS: Fermi energy: 11.963637;164.000000 electrons
         Band energy:-779.709799;  BLOECHL correction:  0.000000
       DOS:  cpu time    0.1160: real time    0.1156
    CHARGE:  cpu time    1.3840: real time    1.3815
    MIXING:  cpu time    0.0000: real time    0.0020
    --------------------------------------------
      LOOP:  cpu time   41.5200: real time   41.5299

 eigenvalue-minimisations  : 39618
 total energy-change (2. order) :-0.1106025E-03  (-0.1341050E-03)
 number of electron     164.0000010 magnetization       0.0020685
 augmentation part       24.3334236 magnetization       0.0019774

 Broyden mixing:
  rms(total) = 0.10105E-01    rms(broyden)= 0.10103E-01
  rms(prec ) = 0.11299E-01
  weight for this iteration     100.00

 eigenvalues of (default mixing * dielectric matrix)
  average eigenvalue GAMMA=   1.2467
  2.5848  1.9799  1.0201  1.0201  0.7429  0.7429  0.6361

 Free energy of the ion-electron system (eV)
  ---------------------------------------------------
  alpha Z        PSCENC =       711.48137369
  Ewald energy   TEWEN  =    -12095.06753575
  -Hartree energ DENC   =     -2817.31391868
  -exchange      EXHF   =         0.00000000
  -V(xc)+E(xc)   XCENC  =       753.40928855
  PAW double counting   =     27919.61138180   -27852.83614207
  entropy T*S    EENTRO =         0.00000000
  eigenvalues    EBANDS =      -779.70979921
  atomic energy  EATOM  =     13964.18822220
  Solvation  Ediel_sol  =         0.00000000
  ---------------------------------------------------
  free energy    TOTEN  =      -196.23712947 eV

  energy without entropy =     -196.23712947  energy(sigma->0) =     -196.23712947


--------------------------------------------------------------------------------------------------------




----------------------------------------- Iteration    1(  13)  ---------------------------------------


    POTLOK:  cpu time    0.0160: real time    0.0167
    SETDIJ:  cpu time    0.0120: real time    0.0134
     EDDAV:  cpu time   35.9920: real time   35.9968
 BZINTS: Fermi energy: 11.965088;164.000000 electrons
         Band energy:-779.751877;  BLOECHL correction:  0.000000
       DOS:  cpu time    0.1160: real time    0.1156
    CHARGE:  cpu time    1.3800: real time    1.3804
    MIXING:  cpu time    0.0000: real time    0.0021
    --------------------------------------------
      LOOP:  cpu time   37.5200: real time   37.5294

 eigenvalue-minimisations  : 35424
 total energy-change (2. order) :-0.1542416E-05  (-0.1693899E-04)
 number of electron     164.0000010 magnetization       0.0009752
 augmentation part       24.3315430 magnetization       0.0009272

 Broyden mixing:
  rms(total) = 0.40323E-02    rms(broyden)= 0.40318E-02
  rms(prec ) = 0.46362E-02
  weight for this iteration     100.00

 eigenvalues of (default mixing * dielectric matrix)
  average eigenvalue GAMMA=   1.2255
  2.5916  2.1514  1.1029  1.1029  0.7786  0.7786  0.6489  0.6489

 Free energy of the ion-electron system (eV)
  ---------------------------------------------------
  alpha Z        PSCENC =       711.48137369
  Ewald energy   TEWEN  =    -12095.06753575
  -Hartree energ DENC   =     -2817.60068403
  -exchange      EXHF   =         0.00000000
  -V(xc)+E(xc)   XCENC  =       753.42130417
  PAW double counting   =     27895.59133438   -27828.49926836
  entropy T*S    EENTRO =         0.00000000
  eigenvalues    EBANDS =      -779.75187732
  atomic energy  EATOM  =     13964.18822220
  Solvation  Ediel_sol  =         0.00000000
  ---------------------------------------------------
  free energy    TOTEN  =      -196.23713101 eV

  energy without entropy =     -196.23713101  energy(sigma->0) =     -196.23713101


--------------------------------------------------------------------------------------------------------




----------------------------------------- Iteration    1(  14)  ---------------------------------------


    POTLOK:  cpu time    0.0160: real time    0.0168
    SETDIJ:  cpu time    0.0120: real time    0.0134
     EDDAV:  cpu time   23.3960: real time   23.3981
 BZINTS: Fermi energy: 11.965025;164.000000 electrons
         Band energy:-779.770549;  BLOECHL correction:  0.000000
       DOS:  cpu time    0.1160: real time    0.1155
    --------------------------------------------
      LOOP:  cpu time   23.5440: real time   23.5556

 eigenvalue-minimisations  : 20502
 total energy-change (2. order) : 0.3099231E-05  (-0.1482711E-05)
 number of electron     164.0000010 magnetization       0.0009752
 augmentation part       24.3315430 magnetization       0.0009272

 Free energy of the ion-electron system (eV)
  ---------------------------------------------------
  alpha Z        PSCENC =       711.48137369
  Ewald energy   TEWEN  =    -12095.06753575
  -Hartree energ DENC   =     -2817.71676367
  -exchange      EXHF   =         0.00000000
  -V(xc)+E(xc)   XCENC  =       753.42718404
  PAW double counting   =     27888.80940275   -27821.58846214
  entropy T*S    EENTRO =         0.00000000
  eigenvalues    EBANDS =      -779.77054903
  atomic energy  EATOM  =     13964.18822220
  Solvation  Ediel_sol  =         0.00000000
  ---------------------------------------------------
  free energy    TOTEN  =      -196.23712791 eV

  energy without entropy =     -196.23712791  energy(sigma->0) =     -196.23712791


--------------------------------------------------------------------------------------------------------




 average (electrostatic) potential at core
  the test charge radii are     0.9587  0.7215  1.0397
  (the norm of the test charge is              1.0000)
       1 -81.8683       2 -81.8682       3 -81.8684       4 -81.8683       5 -67.4626
       6 -67.4625       7 -67.4631       8 -67.4630       9 -66.4912      10 -66.4909
      11 -66.4913      12 -66.4910      13 -66.5623      14 -66.5624      15 -66.5635
      16 -66.5635      17 -66.4789      18 -66.4790      19 -66.4779      20 -66.4780
      21 -69.9839      22 -69.9839      23 -69.9846      24 -69.9845
 
 
 
 E-fermi :  11.9650     XC(G=0): -13.6382     alpha+bet :-18.2300


 spin component 1

 k-point     1 :      -0.0000    0.1250    0.0000
  band No.  band energies     occupation 
      1     -45.8005      1.00000
      2     -45.7953      1.00000
      3     -45.0488      1.00000
      4     -45.0434      1.00000
      5     -22.9271      1.00000
      6     -22.8758      1.00000
      7     -22.6395      1.00000
      8     -22.5944      1.00000
      9     -22.5926      1.00000
     10     -22.5172      1.00000
     11     -22.4317      1.00000
     12     -22.3847      1.00000
     13     -21.6900      1.00000
     14     -21.6392      1.00000
     15     -21.5549      1.00000
     16     -21.4687      1.00000
     17     -14.5885      1.00000
     18     -13.6224      1.00000
     19     -12.1552      1.00000
     20     -11.6755      1.00000
     21     -11.6302      1.00000
     22     -11.2080      1.00000
     23     -10.4830      1.00000
     24     -10.1953      1.00000
     25      -9.9484      1.00000
     26      -9.9407      1.00000
     27      -9.9157      1.00000
     28      -9.7196      1.00000
     29      -9.5771      1.00000
     30      -9.3302      1.00000
     31      -8.5716      1.00000
     32      -8.5129      1.00000
     33      -1.6944      1.00000
     34      -1.2617      1.00000
     35      -1.0024      1.00000
     36      -0.9720      1.00000
     37       0.0717      1.00000
     38       0.4172      1.00000
     39       1.0895      1.00000
     40       1.0909      1.00000
     41       1.3544      1.00000
     42       1.6149      1.00000
     43       1.8164      1.00000
     44       2.1678      1.00000
     45       2.3225      1.00000
     46       2.4855      1.00000
     47       2.6496      1.00000
     48       2.8781      1.00000
     49       3.1728      1.00000
     50       3.3024      1.00000
     51       3.4309      1.00000
     52       3.8669      1.00000
     53       4.1849      1.00000
     54       4.1967      1.00000
     55       4.3741      1.00000
     56       4.4677      1.00000
     57       4.8448      1.00000
     58       5.0373      1.00000
     59       5.4305      1.00000
     60       5.5577      1.00000
     61       5.6938      1.00000
     62       5.7649      1.00000
     63       5.8827      1.00000
     64       5.9919      1.00000
     65       6.0934      1.00000
     66       6.1505      1.00000
     67       6.2483      1.00000
     68       6.3774      1.00000
     69       6.3953      1.00000
     70       6.8918      1.00000
     71       7.0304      1.00000
     72       7.0927      1.00000
     73       7.1421      1.00000
     74       7.6697      1.00000
     75       7.8286      1.00000
     76       7.8802      1.00000
     77       8.0641      1.00000
     78       8.3082      1.00000
     79       8.6872      1.00000
     80       8.8264      1.00000
     81      11.8490      1.00000
     82      11.9039      1.00000
     83      13.4199      0.00000
     84      13.8654      0.00000
     85      13.9481      0.00000
     86      14.0360      0.00000
     87      14.0634      0.00000
     88      14.1978      0.00000
     89      14.2840      0.00000
     90      14.4449      0.00000
     91      14.5277      0.00000
     92      14.7815      0.00000
     93      14.8428      0.00000
     94      15.1891      0.00000
     95      15.3635      0.00000
     96      15.5110      0.00000
     97      15.5791      0.00000
     98      15.7741      0.00000
     99      16.0299      0.00000

 k-point     2 :       0.1429    0.1250    0.0000
  band No.  band energies     occupation 
      1     -45.8004      1.00000
      2     -45.7952      1.00000
      3     -45.0488      1.00000
      4     -45.0434      1.00000
      5     -22.9264      1.00000
      6     -22.8753      1.00000
      7     -22.6491      1.00000
      8     -22.6189      1.00000
      9     -22.5772      1.00000
     10     -22.5044      1.00000
     11     -22.4320      1.00000
     12     -22.3874      1.00000
     13     -21.6944      1.00000
     14     -21.6411      1.00000
     15     -21.5537      1.00000
     16     -21.4686      1.00000
     17     -14.4893      1.00000
     18     -13.6198      1.00000
     19     -12.1586      1.00000
     20     -11.7482      1.00000
     21     -11.6325      1.00000
     22     -11.2106      1.00000
     23     -10.4713      1.00000
     24     -10.1069      1.00000
     25     -10.0669      1.00000
     26      -9.9666      1.00000
     27      -9.8615      1.00000
     28      -9.8083      1.00000
[...]
     35      -1.3683      1.00000
     36      -1.2113      1.00000
     37       0.5491      1.00000
     38       1.1861      1.00000
     39       1.2869      1.00000
     40       1.5098      1.00000
     41       1.6097      1.00000
     42       1.7082      1.00000
     43       1.8089      1.00000
     44       2.1258      1.00000
     45       2.2223      1.00000
     46       2.4426      1.00000
     47       2.6100      1.00000
     48       2.8666      1.00000
     49       3.1654      1.00000
     50       3.4546      1.00000
     51       3.7523      1.00000
     52       3.8546      1.00000
     53       3.9733      1.00000
     54       4.0641      1.00000
     55       4.2983      1.00000
     56       4.4656      1.00000
     57       4.6554      1.00000
     58       4.7695      1.00000
     59       5.0455      1.00000
     60       5.3304      1.00000
     61       5.5818      1.00000
     62       5.6539      1.00000
     63       5.9413      1.00000
     64       5.9891      1.00000
     65       6.1128      1.00000
     66       6.3523      1.00000
     67       6.3946      1.00000
     68       6.6328      1.00000
     69       6.6800      1.00000
     70       6.9070      1.00000
     71       7.0322      1.00000
     72       7.2250      1.00000
     73       7.4082      1.00000
     74       7.4476      1.00000
     75       7.6533      1.00000
     76       7.9192      1.00000
     77       8.1460      1.00000
     78       8.2267      1.00000
     79       8.3811      1.00000
     80       8.6388      1.00000
     81      11.8023      1.00000
     82      11.8376      1.00000
     83      13.3524      0.00000
     84      13.5629      0.00000
     85      13.6758      0.00000
     86      13.8339      0.00000
     87      14.0682      0.00000
     88      14.2144      0.00000
     89      14.3560      0.00000
     90      14.5467      0.00000
     91      14.6463      0.00000
     92      14.8466      0.00000
     93      14.9254      0.00000
     94      15.1608      0.00000
     95      15.2124      0.00000
     96      15.3419      0.00000
     97      15.5015      0.00000
     98      15.8398      0.00000
     99      16.0358      0.00000


--------------------------------------------------------------------------------------------------------


 soft charge-density along one line, spin component           1
         0         1         2         3         4         5         6         7         8         9
 total charge-density along one line
 
 soft charge-density along one line, spin component           2
         0         1         2         3         4         5         6         7         8         9
 total charge-density along one line
 
 pseudopotential strength for first ion, spin component:           1
 28.620  35.705  -0.002   0.009  -0.002  -0.003   0.013  -0.003
 35.705  44.548  -0.002   0.011  -0.002  -0.004   0.017  -0.003
 -0.002  -0.002   6.330   0.001  -0.002   9.803   0.001  -0.003
  0.009   0.011   0.001   6.337   0.000   0.001   9.813   0.000
 -0.002  -0.002  -0.002   0.000   6.328  -0.003   0.000   9.800
 -0.003  -0.004   9.803   0.001  -0.003  15.199   0.002  -0.005
  0.013   0.017   0.001   9.813   0.000   0.002  15.215   0.000
 -0.003  -0.003  -0.003   0.000   9.800  -0.005   0.000  15.195
 pseudopotential strength for first ion, spin component:           2
 28.621  35.706  -0.001   0.009  -0.002  -0.002   0.014  -0.003
 35.706  44.549  -0.002   0.011  -0.002  -0.002   0.017  -0.003
 -0.001  -0.002   6.331   0.001  -0.003   9.803   0.001  -0.004
  0.009   0.011   0.001   6.337   0.000   0.001   9.813   0.000
 -0.002  -0.002  -0.003   0.000   6.328  -0.004   0.000   9.800
 -0.002  -0.002   9.803   0.001  -0.004  15.200   0.001  -0.006
  0.014   0.017   0.001   9.813   0.000   0.001  15.215   0.000
 -0.003  -0.003  -0.004   0.000   9.800  -0.006   0.000  15.194
 total augmentation occupancy for first ion, spin component:           1
 28.626 -19.237   0.163  -0.254  -0.656  -0.084   0.153   0.311
-19.237  13.339  -0.116   0.144   0.490   0.058  -0.097  -0.221
  0.163  -0.116   9.108  -0.278  -0.886  -3.952   0.104   0.415
 -0.254   0.144  -0.278   9.700   0.076   0.105  -4.255  -0.067
 -0.656   0.490  -0.886   0.076   8.699   0.414  -0.068  -3.740
 -0.084   0.058  -3.952   0.105   0.414   1.785  -0.047  -0.207
  0.153  -0.097   0.104  -4.255  -0.068  -0.047   1.939   0.040
  0.311  -0.221   0.415  -0.067  -3.740  -0.207   0.040   1.671
 total augmentation occupancy for first ion, spin component:           2
 -0.022   0.014   0.003  -0.013   0.006   0.007   0.004  -0.003
  0.014  -0.008  -0.003   0.011  -0.005  -0.007  -0.003   0.002
  0.003  -0.003  -0.004   0.001  -0.000   0.002  -0.001   0.000
 -0.013   0.011   0.001  -0.010   0.001  -0.001   0.006  -0.001
  0.006  -0.005  -0.000   0.001  -0.002   0.000  -0.001   0.002
  0.007  -0.007   0.002  -0.001   0.000  -0.002   0.001   0.001
  0.004  -0.003  -0.001   0.006  -0.001   0.001  -0.003   0.000
 -0.003   0.002   0.000  -0.001   0.002   0.001   0.000  -0.001


------------------------ aborting loop because EDIFF is reached ----------------------------------------


 


 total charge     
 
# of ion     s       p       d       tot
----------------------------------------
  1        0.905   1.556   0.000   2.461
  2        0.905   1.556   0.000   2.461
  3        0.905   1.556   0.000   2.461
  4        0.905   1.556   0.000   2.461
  5        1.566   3.731   0.000   5.297
  6        1.566   3.731   0.000   5.297
  7        1.566   3.731   0.000   5.297
  8        1.566   3.731   0.000   5.297
  9        1.569   3.700   0.000   5.269
 10        1.569   3.700   0.000   5.269
 11        1.569   3.700   0.000   5.269
 12        1.569   3.700   0.000   5.269
 13        1.566   3.677   0.000   5.244
 14        1.566   3.678   0.000   5.244
 15        1.566   3.678   0.000   5.244
 16        1.566   3.678   0.000   5.244
 17        1.568   3.720   0.000   5.288
 18        1.568   3.720   0.000   5.288
 19        1.568   3.720   0.000   5.288
 20        1.568   3.720   0.000   5.288
 21        2.197   6.280   2.027  10.504
 22        2.197   6.280   2.027  10.504
 23        2.197   6.280   2.027  10.504
 24        2.197   6.280   2.027  10.504
------------------------------------------------
tot       37.487  90.654   8.109 136.251
 


 magnetization (x)
 
# of ion     s       p       d       tot
----------------------------------------
  1        0.000  -0.001   0.000  -0.001
  2       -0.000   0.001   0.000   0.001
  3       -0.000   0.001   0.000   0.001
  4        0.000  -0.001   0.000  -0.001
  5       -0.000  -0.003   0.000  -0.003
  6        0.000   0.003   0.000   0.003
  7        0.000   0.003   0.000   0.003
  8       -0.000  -0.003   0.000  -0.003
  9        0.001  -0.009   0.000  -0.008
 10       -0.001   0.009   0.000   0.008
 11       -0.001   0.009   0.000   0.008
 12        0.001  -0.009   0.000  -0.008
 13       -0.000  -0.010   0.000  -0.010
 14        0.000   0.010   0.000   0.010
 15        0.000   0.010   0.000   0.010
 16       -0.000  -0.010   0.000  -0.010
 17       -0.000  -0.012   0.000  -0.012
 18        0.000   0.012   0.000   0.012
 19        0.000   0.012   0.000   0.012
 20       -0.000  -0.012   0.000  -0.012
 21       -0.005  -0.008  -0.827  -0.839
 22        0.005   0.008   0.827   0.839
 23        0.005   0.008   0.827   0.839
 24       -0.005  -0.008  -0.827  -0.839
------------------------------------------------
tot        0.000  -0.000   0.000  -0.000
 
    CHARGE:  cpu time    1.3720: real time    1.3740
    FORLOC:  cpu time    0.0080: real time    0.0110
    FORNL :  cpu time    9.6120: real time    9.6174
    STRESS:  cpu time   10.8520: real time   10.8575
    FORCOR:  cpu time    0.0240: real time    0.0266
    FORHAR:  cpu time    0.0120: real time    0.0165
    MIXING:  cpu time    0.0000: real time    0.0021
    OFIELD:  cpu time    0.0000: real time    0.0022

  FORCE on cell =-STRESS in cart. coord.  units (eV):
  Direction    XX          YY          ZZ          XY          YZ          ZX
  --------------------------------------------------------------------------------------
  Alpha Z   711.48137   711.48137   711.48137
  Ewald   -4006.44920 -4032.15236 -4056.50192   -88.13278  -109.28757   127.67023
  Hartree   965.59124   953.38499   898.89848    -7.05129   -56.08774    72.33983
  E(xc)    -808.21969  -808.53437  -808.74653     0.53999     0.24708    -0.02459
  Local      45.57719    99.32568   170.73223    93.96162   161.74161  -204.30979
  n-local  -298.09409  -286.12099  -286.28658   -12.05970    -8.52386     1.51426
  augment   335.90820   324.18088   334.97068    -4.41303     2.26060     2.68115
  Kinetic  3120.55266  3104.77943  3101.77539    17.14658     9.65599     0.13417
  Fock        0.00000     0.00000     0.00000     0.00000     0.00000     0.00000
  -------------------------------------------------------------------------------------
  Total      66.34769    66.34462    66.32311    -0.00862     0.00612     0.00526
  in kB     604.59996   604.57202   604.37600    -0.07851     0.05578     0.04794
  external pressure =      604.52 kB  Pullay stress =        0.00 kB


 VOLUME and BASIS-vectors are now :
 -----------------------------------------------------------------------------
  energy-cutoff  :      520.00
  volume of cell :      175.82
      direct lattice vectors                 reciprocal lattice vectors
     3.249680263 -1.971230769  2.604773305     0.088776087 -0.188110527  0.130797119
    -3.048289734  2.544940642  5.729066222    -0.062734105  0.052375932  0.117903094
    -5.103955115 -3.282984093 -1.257326653    -0.101935531 -0.151050718  0.012861795

  length of vectors
     4.607712722  6.970723990  6.197516655     0.245712536  0.143457122  0.182681684


 FORCES acting on ions
    electron-ion (+dipol)            ewald-force                    non-local-force                 convergence-correction
 -----------------------------------------------------------------------------------------------
   -.217E+02 0.139E+02 0.939E+01   0.211E+02 -.131E+02 -.121E+02   0.637E+00 -.814E+00 0.270E+01   0.736E-04 -.348E-03 0.492E-03
   0.217E+02 -.139E+02 -.938E+01   -.211E+02 0.131E+02 0.121E+02   -.639E+00 0.817E+00 -.271E+01   -.107E-03 0.236E-03 -.487E-03
   -.225E+01 -.234E+01 -.272E+02   0.167E+00 0.436E+01 0.272E+02   0.208E+01 -.202E+01 -.151E-01   0.344E-03 -.437E-03 0.257E-04
   0.226E+01 0.233E+01 0.272E+02   -.175E+00 -.435E+01 -.273E+02   -.208E+01 0.203E+01 0.123E-01   -.283E-03 0.521E-03 -.698E-04
   -.544E+01 -.119E+02 -.934E+02   0.101E+02 0.112E+01 0.879E+02   -.469E+01 0.108E+02 0.548E+01   -.674E-03 -.217E-02 0.374E-02
   0.544E+01 0.119E+02 0.934E+02   -.101E+02 -.111E+01 -.879E+02   0.469E+01 -.108E+02 -.548E+01   0.475E-03 0.228E-02 -.389E-02
   -.743E+02 0.456E+02 0.360E+02   0.698E+02 -.487E+02 -.243E+02   0.448E+01 0.312E+01 -.118E+02   0.178E-02 -.418E-02 -.350E-03
   0.743E+02 -.456E+02 -.360E+02   -.698E+02 0.487E+02 0.243E+02   -.448E+01 -.312E+01 0.118E+02   -.157E-02 0.406E-02 0.503E-03
   0.120E+02 0.241E+02 0.280E+01   -.319E+01 -.509E+02 0.105E+02   -.882E+01 0.268E+02 -.133E+02   -.223E-02 0.716E-03 0.106E-02
   -.120E+02 -.241E+02 -.280E+01   0.320E+01 0.509E+02 -.105E+02   0.882E+01 -.268E+02 0.133E+02   0.248E-02 -.938E-03 -.928E-03
   0.171E+02 0.198E+02 -.681E+01   -.107E+02 -.446E+02 0.246E+02   -.641E+01 0.248E+02 -.178E+02   -.545E-03 -.662E-03 -.269E-02
   -.171E+02 -.198E+02 0.680E+01   0.107E+02 0.446E+02 -.246E+02   0.641E+01 -.248E+02 0.178E+02   0.388E-03 0.836E-03 0.240E-02
   -.752E+02 0.371E+02 0.154E+02   0.917E+02 -.370E+02 -.449E+02   -.165E+02 -.883E-01 0.294E+02   0.479E-02 -.399E-03 -.692E-02
   0.752E+02 -.371E+02 -.154E+02   -.917E+02 0.370E+02 0.449E+02   0.165E+02 0.881E-01 -.294E+02   -.479E-02 0.317E-03 0.686E-02
   -.235E+02 -.611E+01 -.818E+02   0.126E+02 0.291E+02 0.104E+03   0.109E+02 -.230E+02 -.221E+02   -.208E-02 0.542E-02 0.604E-02
   0.235E+02 0.612E+01 0.818E+02   -.126E+02 -.291E+02 -.104E+03   -.109E+02 0.230E+02 0.221E+02   0.215E-02 -.539E-02 -.611E-02
   0.256E+02 0.734E+02 0.760E+01   -.475E+02 -.618E+02 0.262E+01   0.219E+02 -.116E+02 -.102E+02   -.117E-03 -.142E-02 0.492E-02
   -.256E+02 -.734E+02 -.759E+01   0.475E+02 0.618E+02 -.262E+01   -.219E+02 0.116E+02 0.102E+02   -.142E-03 0.143E-02 -.502E-02
   0.447E+02 0.574E+02 -.283E+02   -.472E+02 -.621E+02 0.207E+01   0.246E+01 0.462E+01 0.263E+02   0.323E-02 -.402E-02 -.826E-03
   -.447E+02 -.574E+02 0.283E+02   0.472E+02 0.621E+02 -.205E+01   -.246E+01 -.462E+01 -.263E+02   -.301E-02 0.402E-02 0.983E-03
   -.569E+02 -.537E+02 0.176E+02   0.555E+02 0.559E+02 -.198E+02   0.143E+01 -.226E+01 0.222E+01   0.284E-02 -.509E-03 0.180E-02
   0.569E+02 0.537E+02 -.176E+02   -.555E+02 -.559E+02 0.198E+02   -.143E+01 0.226E+01 -.222E+01   -.290E-02 0.786E-03 -.174E-02
   -.396E+02 -.681E+02 -.149E+02   0.379E+02 0.707E+02 0.133E+02   0.175E+01 -.253E+01 0.161E+01   0.281E-02 -.688E-03 0.198E-02
   0.396E+02 0.681E+02 0.149E+02   -.378E+02 -.707E+02 -.133E+02   -.175E+01 0.253E+01 -.161E+01   -.292E-02 0.556E-03 -.175E-02
 -----------------------------------------------------------------------------------------------
   0.741E-02 -.109E-01 0.895E-02   -.178E-12 0.185E-12 0.160E-12   -.743E-02 0.109E-01 -.894E-02   -.314E-05 0.232E-04 0.250E-04
 
 
 POSITION                                       TOTAL-FORCE (eV/Angst)
 -----------------------------------------------------------------------------------
     -0.91098     -3.47617      2.96821        -0.000367     -0.000272     -0.004693
     -3.99157      0.76688      4.10832        -0.000940      0.002513      0.003079
      1.48881     -1.70761      3.88291        -0.000004     -0.002160     -0.007841
     -6.39137     -1.00168      3.19362        -0.001203      0.004315      0.006118
     -2.02398     -4.51456      2.35763        -0.002920      0.003192      0.000400
     -2.87858      1.80528      4.71888         0.003022     -0.003058     -0.000438
      0.03107     -2.45820      3.92023        -0.000231      0.001683     -0.003367
     -4.93363     -0.25108      3.15628         0.000255     -0.001485      0.003381
     -3.52266     -2.62821      1.18987        -0.007102     -0.001555      0.003403
     -1.37991     -0.08105      5.88664         0.007797      0.000189     -0.002831
     -1.13147     -0.85248      2.12072        -0.003323     -0.004855     -0.003693
     -3.77110     -1.85679      4.95578         0.003731      0.003719      0.004799
     -0.40182     -3.17609      1.56909        -0.001498     -0.002299      0.002485
     -4.50074      0.46682      5.50742         0.001022      0.001963     -0.001429
      0.89341     -0.48539      4.55974        -0.001901      0.001052      0.002117
     -5.79598     -2.22387      2.51678         0.002226     -0.002089     -0.002657
     -2.03499     -2.54234      3.40986        -0.005176      0.004748      0.001044
     -2.86759     -0.16692      3.66666         0.006427     -0.005509     -0.001444
      1.41037     -1.64671      2.35942        -0.000642      0.001061     -0.000809
     -6.31294     -1.06256      4.71708         0.000866     -0.000947      0.002296
     -5.14568     -1.27320      6.22307        -0.000539      0.003446      0.000865
      0.24311     -1.43607      0.85345         0.000658     -0.003703     -0.001193
     -1.13147     -0.85249      4.10357         0.000609      0.002463     -0.002903
     -3.77110     -1.85679      2.97294        -0.000769     -0.002410      0.003309
 -----------------------------------------------------------------------------------
    total drift:                               -0.000016      0.000023      0.000036


--------------------------------------------------------------------------------------------------------



  FREE ENERGIE OF THE ION-ELECTRON SYSTEM (eV)
  ---------------------------------------------------
  free  energy   TOTEN  =      -196.23712791 eV

  energy  without entropy=     -196.23712791  energy(sigma->0) =     -196.23712791
 


--------------------------------------------------------------------------------------------------------


    POTLOK:  cpu time    0.0320: real time    0.0354


--------------------------------------------------------------------------------------------------------


 writing wavefunctions
     LOOP+:  cpu time  585.0920: real time  602.3727
    4ORBIT:  cpu time    0.0000: real time    0.0000
 


 total charge     
 
# of ion     s       p       d       tot
----------------------------------------
  1        0.905   1.556   0.000   2.461
  2        0.905   1.556   0.000   2.461
  3        0.905   1.556   0.000   2.461
  4        0.905   1.556   0.000   2.461
  5        1.566   3.731   0.000   5.297
  6        1.566   3.731   0.000   5.297
  7        1.566   3.731   0.000   5.297
  8        1.566   3.731   0.000   5.297
  9        1.569   3.700   0.000   5.269
 10        1.569   3.700   0.000   5.269
 11        1.569   3.700   0.000   5.269
 12        1.569   3.700   0.000   5.269
 13        1.566   3.677   0.000   5.244
 14        1.566   3.678   0.000   5.244
 15        1.566   3.678   0.000   5.244
 16        1.566   3.678   0.000   5.244
 17        1.568   3.720   0.000   5.288
 18        1.568   3.720   0.000   5.288
 19        1.568   3.720   0.000   5.288
 20        1.568   3.720   0.000   5.288
 21        2.197   6.280   2.027  10.504
 22        2.197   6.280   2.027  10.504
 23        2.197   6.280   2.027  10.504
 24        2.197   6.280   2.027  10.504
------------------------------------------------
tot       37.487  90.654   8.109 136.251
 


 magnetization (x)
 
# of ion     s       p       d       tot
----------------------------------------
  1        0.000  -0.001   0.000  -0.001
  2       -0.000   0.001   0.000   0.001
  3       -0.000   0.001   0.000   0.001
  4        0.000  -0.001   0.000  -0.001
  5       -0.000  -0.003   0.000  -0.003
  6        0.000   0.003   0.000   0.003
  7        0.000   0.003   0.000   0.003
  8       -0.000  -0.003   0.000  -0.003
  9        0.001  -0.009   0.000  -0.008
 10       -0.001   0.009   0.000   0.008
 11       -0.001   0.009   0.000   0.008
 12        0.001  -0.009   0.000  -0.008
 13       -0.000  -0.010   0.000  -0.010
 14        0.000   0.010   0.000   0.010
 15        0.000   0.010   0.000   0.010
 16       -0.000  -0.010   0.000  -0.010
 17       -0.000  -0.012   0.000  -0.012
 18        0.000   0.012   0.000   0.012
 19        0.000   0.012   0.000   0.012
 20       -0.000  -0.012   0.000  -0.012
 21       -0.005  -0.008  -0.827  -0.839
 22        0.005   0.008   0.827   0.839
 23        0.005   0.008   0.827   0.839
 24       -0.005  -0.008  -0.827  -0.839
------------------------------------------------
tot        0.000  -0.000   0.000  -0.000
 
 BZINTS: Fermi energy: 11.965025;164.000000 electrons
         Band energy:-779.770549;  BLOECHL correction:  0.000000

 total amount of memory used by VASP on root node   101086. kBytes
========================================================================

   base      :      30000. kBytes
   nonl-proj :      18466. kBytes
   fftplans  :       1459. kBytes
   grid      :       3834. kBytes
   one-center:         93. kBytes
   wavefun   :      47234. kBytes
 
  
  
 General timing and accounting informations for this job:
 ========================================================
  
                  Total CPU time used (sec):      634.124
                            User time (sec):      600.524
                          System time (sec):       33.600
                         Elapsed time (sec):      653.014
  
                   Maximum memory used (kb):      137988.
                   Average memory used (kb):           0.
  
                          Minor page faults:       259172
                          Major page faults:           18
                 Voluntary context switches:        16508
