Fe
   2.88217724600000
     2.9999999999999996    0.0000000000000000    0.0000000000000000
     0.0000000000000000    2.9999999999999996    0.0000000000000000
     0.0000000000000000    0.0000000000000000    2.9999999999999996
   Fe
    54
Direct configuration=     1
   0.0000000000000000        0.0000000000000000        0.0000000000000000     
  0.16666666666666666       0.16666666666666666       0.16666666666666666     
   0.0000000000000000        0.0000000000000000       0.33333333333333331     
  0.16666666666666666       0.16666666666666666       0.50000000000000000     
   0.0000000000000000        0.0000000000000000       0.66666666666666663     
  0.16666666666666666       0.16666666666666666       0.83333333333333337     
   0.0000000000000000       0.33333333333333331        0.0000000000000000     
  0.16666666666666666       0.50000000000000000       0.16666666666666666     
   0.0000000000000000       0.33333333333333331       0.33333333333333331     
  0.16666666666666666       0.50000000000000000       0.50000000000000000     
   0.0000000000000000       0.33333333333333331       0.66666666666666663     
  0.16666666666666666       0.50000000000000000       0.83333333333333337     
   0.0000000000000000       0.66666666666666663        0.0000000000000000     
  0.16666666666666666       0.83333333333333337       0.16666666666666666     
   0.0000000000000000       0.66666666666666663       0.33333333333333331     
  0.16666666666666666       0.83333333333333337       0.50000000000000000     
   0.0000000000000000       0.66666666666666663       0.66666666666666663     
  0.16666666666666666       0.83333333333333337       0.83333333333333337     
  0.33333333333333331        0.0000000000000000        0.0000000000000000     
  0.50000000000000000       0.16666666666666666       0.16666666666666666     
  0.33333333333333331        0.0000000000000000       0.33333333333333331     
  0.50000000000000000       0.16666666666666666       0.50000000000000000     
  0.33333333333333331        0.0000000000000000       0.66666666666666663     
  0.50000000000000000       0.16666666666666666       0.83333333333333337     
  0.33333333333333331       0.33333333333333331        0.0000000000000000     
  0.50000000000000000       0.50000000000000000       0.16666666666666666     
  0.33333333333333331       0.33333333333333331       0.33333333333333331     
  0.50000000000000000       0.50000000000000000       0.50000000000000000     
  0.33333333333333331       0.33333333333333331       0.66666666666666663     
  0.50000000000000000       0.50000000000000000       0.83333333333333337     
  0.33333333333333331       0.66666666666666663        0.0000000000000000     
  0.50000000000000000       0.83333333333333337       0.16666666666666666     
  0.33333333333333331       0.66666666666666663       0.33333333333333331     
  0.50000000000000000       0.83333333333333337       0.50000000000000000     
  0.33333333333333331       0.66666666666666663       0.66666666666666663     
  0.50000000000000000       0.83333333333333337       0.83333333333333337     
  0.66666666666666663        0.0000000000000000        0.0000000000000000     
  0.83333333333333337       0.16666666666666666       0.16666666666666666     
  0.66666666666666663        0.0000000000000000       0.33333333333333331     
  0.83333333333333337       0.16666666666666666       0.50000000000000000     
  0.66666666666666663        0.0000000000000000       0.66666666666666663     
  0.83333333333333337       0.16666666666666666       0.83333333333333337     
  0.66666666666666663       0.33333333333333331        0.0000000000000000     
  0.83333333333333337       0.50000000000000000       0.16666666666666666     
  0.66666666666666663       0.33333333333333331       0.33333333333333331     
  0.83333333333333337       0.50000000000000000       0.50000000000000000     
  0.66666666666666663       0.33333333333333331       0.66666666666666663     
  0.83333333333333337       0.50000000000000000       0.83333333333333337     
  0.66666666666666663       0.66666666666666663        0.0000000000000000     
  0.83333333333333337       0.83333333333333337       0.16666666666666666     
  0.66666666666666663       0.66666666666666663       0.33333333333333331     
  0.83333333333333337       0.83333333333333337       0.50000000000000000     
  0.66666666666666663       0.66666666666666663       0.66666666666666663     
  0.83333333333333337       0.83333333333333337       0.83333333333333337     
