 vasp.5.4.4.18Apr17-6-g9f103f2a35 (build Aug 01 2018 12:10:22) complex          
  
 executed on        TETRALITH-B01 date 2018.10.19  10:39:24
 running on   32 total cores
 distrk:  each k-point on   32 cores,    1 groups
 distr:  one band on NCORES_PER_BAND=  32 cores,    1 groups


--------------------------------------------------------------------------------------------------------


 INCAR:
 POTCAR:    PAW Ti_sv 26Sep2005                   
 POTCAR:    PAW P 26Mar2009                       
 POTCAR:    PAW O 22Mar2012                       

 ----------------------------------------------------------------------------- 
|                                                                             |
|           W    W    AA    RRRRR   N    N  II  N    N   GGGG   !!!           |
|           W    W   A  A   R    R  NN   N  II  NN   N  G    G  !!!           |
|           W    W  A    A  R    R  N N  N  II  N N  N  G       !!!           |
|           W WW W  AAAAAA  RRRRR   N  N N  II  N  N N  G  GGG   !            |
|           WW  WW  A    A  R   R   N   NN  II  N   NN  G    G                |
|           W    W  A    A  R    R  N    N  II  N    N   GGGG   !!!           |
|                                                                             |
|      For optimal performance we recommend to set                            |
|        NCORE= 4 - approx SQRT( number of cores)                             |
|      NCORE specifies how many cores store one orbital (NPAR=cpu/NCORE).     |
|      This setting can  greatly improve the performance of VASP for DFT.     |
|      The default,   NCORE=1            might be grossly inefficient         |
|      on modern multi-core architectures or massively parallel machines.     |
|      Do your own testing !!!!                                               |
|      Unfortunately you need to use the default for GW and RPA calculations. |
|      (for HF NCORE is supported but not extensively tested yet)             |
|                                                                             |
 ----------------------------------------------------------------------------- 

 POTCAR:    PAW Ti_sv 26Sep2005                   
   VRHFIN =Ti: 3s3p4s3d                                                         
   LEXCH  = CA                                                                  
   EATOM  =  1588.8698 eV,  116.7786 Ry                                         
                                                                                
   TITEL  = PAW Ti_sv 26Sep2005                                                 
   LULTRA =        F    use ultrasoft PP ?                                      
   IUNSCR =        1    unscreen: 0-lin 1-nonlin 2-no                           
   RPACOR =    2.000    partial core radius                                     
   POMASS =   47.880; ZVAL   =   12.000    mass and valenz                      
   RCORE  =    2.300    outmost cutoff radius                                   
   RWIGS  =    2.300; RWIGS  =    1.217    wigner-seitz radius (au A)           
   ENMAX  =  274.719; ENMIN  =  206.039 eV                                      
   ICORE  =        3    local potential                                         
   LCOR   =        T    correct aug charges                                     
   LPAW   =        T    paw PP                                                  
   EAUG   =  482.848                                                            
   RMAX   =    2.348    core radius for proj-oper                               
   RAUG   =    1.300    factor for augmentation sphere                          
   RDEP   =    2.381    radius for radial grids                                 
   RDEPT  =    1.930    core radius for aug-charge                              
                                                                                
   Atomic configuration                                                         
    8 entries                                                                   
     n  l   j            E        occ.                                          
     1  0  0.50     -4841.5915   2.0000                                         
     2  0  0.50      -530.7755   2.0000                                         
     2  1  1.50      -439.8260   6.0000                                         
     3  0  0.50       -58.8300   2.0000                                         
     4  0  0.50        -3.8733   1.0000                                         
     3  1  1.50       -35.5746   6.0000                                         
     3  2  2.50        -2.0952   3.0000                                         
     4  3  2.50        -1.3606   0.0000                                         
   Description                                                                  
     l       E           TYP  RCUT    TYP  RCUT                                 
     0    -58.8300472     23  1.800                                             
     0     -3.8733026     23  2.300                                             
     1    -35.5746147     23  2.300                                             
     1     -1.3605826     23  2.300                                             
     2     -2.0951860     23  2.300                                             
     2     -0.1606077     23  2.300                                             
     3     -1.3605826     23  2.300                                             
  local pseudopotential read in
  partial core-charges read in
  partial kinetic energy density read in
  atomic valenz-charges read in
  non local Contribution for L=           0  read in
    real space projection operators read in
  non local Contribution for L=           0  read in
    real space projection operators read in
  non local Contribution for L=           1  read in
    real space projection operators read in
  non local Contribution for L=           1  read in
    real space projection operators read in
  non local Contribution for L=           2  read in
    real space projection operators read in
  non local Contribution for L=           2  read in
    real space projection operators read in
    PAW grid and wavefunctions read in
 
   number of l-projection  operators is LMAX  =           6
   number of lm-projection operators is LMMAX =          18
 
 POTCAR:    PAW P 26Mar2009                       
   VRHFIN =P : s2p3                                                             
   LEXCH  = CA                                                                  
   EATOM  =   176.5121 eV,   12.9733 Ry                                         
                                                                                
   TITEL  = PAW P 26Mar2009                                                     
   LULTRA =        F    use ultrasoft PP ?                                      
   IUNSCR =        1    unscreen: 0-lin 1-nonlin 2-no                           
   RPACOR =    1.500    partial core radius                                     
   POMASS =   30.974; ZVAL   =    5.000    mass and valenz                      
   RCORE  =    1.900    outmost cutoff radius                                   
   RWIGS  =    2.330; RWIGS  =    1.233    wigner-seitz radius (au A)           
   ENMAX  =  255.155; ENMIN  =  191.366 eV                                      
   ICORE  =        2    local potential                                         
   LCOR   =        T    correct aug charges                                     
   LPAW   =        T    paw PP                                                  
   EAUG   =  342.924                                                            
   DEXC   =    0.000                                                            
   RMAX   =    1.935    core radius for proj-oper                               
   RAUG   =    1.300    factor for augmentation sphere                          
   RDEP   =    1.931    radius for radial grids                                 
   RDEPT  =    1.780    core radius for aug-charge                              
                                                                                
   Atomic configuration                                                         
    6 entries                                                                   
     n  l   j            E        occ.                                          
     1  0  0.50     -2072.7761   2.0000                                         
     2  0  0.50      -172.9483   2.0000                                         
     2  1  1.50      -124.4644   6.0000                                         
     3  0  0.50       -14.0086   2.0000                                         
     3  1  0.50        -5.6037   3.0000                                         
     3  2  1.50        -6.8029   0.0000                                         
   Description                                                                  
     l       E           TYP  RCUT    TYP  RCUT                                 
     0    -14.0086211     23  1.900                                             
     0    -11.8189335     23  1.900                                             
     1     -5.6037292     23  1.900                                             
     1     -0.3527308     23  1.900                                             
     2     -6.8029130     23  1.900                                             
  local pseudopotential read in
  partial core-charges read in
  partial kinetic energy density read in
  atomic valenz-charges read in
  non local Contribution for L=           0  read in
    real space projection operators read in
  non local Contribution for L=           0  read in
    real space projection operators read in
  non local Contribution for L=           1  read in
    real space projection operators read in
  non local Contribution for L=           1  read in
    real space projection operators read in
    PAW grid and wavefunctions read in
 
   number of l-projection  operators is LMAX  =           4
   number of lm-projection operators is LMMAX =           8
 
 POTCAR:    PAW O 22Mar2012                       
   VRHFIN =O: s2p4                                                              
   LEXCH  = CA                                                                  
   EATOM  =   431.4380 eV,   31.7098 Ry                                         
                                                                                
   TITEL  = PAW O 22Mar2012                                                     
   LULTRA =        F    use ultrasoft PP ?                                      
   IUNSCR =        1    unscreen: 0-lin 1-nonlin 2-no                           
   RPACOR =    1.200    partial core radius                                     
   POMASS =   16.000; ZVAL   =    6.000    mass and valenz                      
   RCORE  =    1.520    outmost cutoff radius                                   
   RWIGS  =    1.550; RWIGS  =    0.820    wigner-seitz radius (au A)           
   ENMAX  =  400.000; ENMIN  =  300.000 eV                                      
   ICORE  =        2    local potential                                         
   LCOR   =        T    correct aug charges                                     
   LPAW   =        T    paw PP                                                  
   EAUG   =  605.392                                                            
   DEXC   =    0.000                                                            
   RMAX   =    1.553    core radius for proj-oper                               
   RAUG   =    1.300    factor for augmentation sphere                          
   RDEP   =    1.550    radius for radial grids                                 
   RDEPT  =    1.329    core radius for aug-charge                              
                                                                                
   Atomic configuration                                                         
    4 entries                                                                   
     n  l   j            E        occ.                                          
     1  0  0.50      -510.4605   2.0000                                         
     2  0  0.50       -23.7367   2.0000                                         
     2  1  0.50        -9.1995   4.0000                                         
     3  2  1.50        -9.5241   0.0000                                         
   Description                                                                  
     l       E           TYP  RCUT    TYP  RCUT                                 
     0    -23.7366993     23  1.200                                             
     0     -9.5240782     23  1.200                                             
     1     -9.1994509     23  1.520                                             
     1      8.1634956     23  1.520                                             
     2     -9.5240782      7  1.500                                             
  local pseudopotential read in
  partial core-charges read in
  partial kinetic energy density read in
  kinetic energy density of atom read in
  atomic valenz-charges read in
  non local Contribution for L=           0  read in
    real space projection operators read in
  non local Contribution for L=           0  read in
    real space projection operators read in
  non local Contribution for L=           1  read in
    real space projection operators read in
  non local Contribution for L=           1  read in
    real space projection operators read in
    PAW grid and wavefunctions read in
 
   number of l-projection  operators is LMAX  =           4
   number of lm-projection operators is LMMAX =           8
 

 ----------------------------------------------------------------------------- 
|                                                                             |
|  ADVICE TO THIS USER RUNNING 'VASP/VAMP'   (HEAR YOUR MASTER'S VOICE ...):  |
|                                                                             |
|      You have a (more or less) 'large supercell' and for larger cells       |
|      it might be more efficient to use real space projection opertators     |
|      So try LREAL= Auto  in the INCAR   file.                               |
|      Mind:          For very  accurate calculation you might also keep the  |
|      reciprocal projection scheme          (i.e. LREAL=.FALSE.)             |
|                                                                             |
 ----------------------------------------------------------------------------- 

  PAW Ti_sv 26Sep2005                   :
 energy of atom  1       EATOM=-1588.8698
 kinetic energy error for atom=    0.0042 (will be added to EATOM!!)
  PAW P 26Mar2009                       :
 energy of atom  2       EATOM= -176.5121
 kinetic energy error for atom=    0.0010 (will be added to EATOM!!)
  PAW O 22Mar2012                       :
 energy of atom  3       EATOM= -431.4380
 kinetic energy error for atom=    0.0204 (will be added to EATOM!!)
 
 
 POSCAR: O4 P Ti                                 
  positions in direct lattice
  No initial velocities read in
 exchange correlation table for  LEXCH =        2
   RHO(1)=    0.500       N(1)  =     2000
   RHO(2)=  100.500       N(2)  =     4000
 


--------------------------------------------------------------------------------------------------------


 ion  position               nearest neighbor table
   1  1.000  0.000  0.750-  37 1.95  34 1.95  28 2.06  32 2.06  29 2.06  25 2.06
   2  0.500  1.000  0.750-  38 1.95  33 1.95  27 2.06  31 2.06  30 2.06  26 2.06
   3  0.500  1.000  0.250-  39 1.95  36 1.95  27 2.06  31 2.06  30 2.06  26 2.06
   4  1.000  0.000  0.250-  40 1.95  35 1.95  28 2.06  32 2.06  29 2.06  25 2.06
   5  0.250  0.500  0.749-  17 1.95  22 1.95  45 2.06  44 2.06  41 2.06  48 2.06
   6  0.750  0.500  0.751-  18 1.95  21 1.95  46 2.06  43 2.06  42 2.06  47 2.06
   7  0.750  0.500  0.249-  19 1.95  24 1.95  46 2.06  43 2.06  42 2.06  47 2.06
   8  0.250  0.500  0.251-  20 1.95  23 1.95  45 2.06  44 2.06  41 2.06  48 2.06
   9  0.250  0.147  0.000-  20 1.51  17 1.51  25 1.55  30 1.55
  10  0.750  0.853  0.500-  18 1.51  19 1.51  26 1.55  29 1.55
  11  0.750  0.146  1.000-  21 1.51  24 1.51  32 1.55  27 1.55
  12  0.250  0.854  0.500-  23 1.51  22 1.51  31 1.55  28 1.55
  13  0.500  0.646  0.000-  36 1.51  33 1.51  41 1.55  46 1.55
  14  1.000  0.354  0.500-  34 1.51  35 1.51  42 1.55  45 1.55
  15  0.000  0.647  1.000-  37 1.51  40 1.51  48 1.55  43 1.55
  16  0.500  0.353  0.500-  39 1.51  38 1.51  47 1.55  44 1.55
  17  0.250  0.253  0.788-   9 1.51   5 1.95
  18  0.750  0.747  0.712-  10 1.51   6 1.95
  19  0.750  0.747  0.288-  10 1.51   7 1.95
  20  0.250  0.253  0.212-   9 1.51   8 1.95
  21  0.750  0.252  0.788-  11 1.51   6 1.95
  22  0.250  0.748  0.712-  12 1.51   5 1.95
  23  0.250  0.748  0.288-  12 1.51   8 1.95
  24  0.750  0.252  0.212-  11 1.51   7 1.95
  25  0.132  0.032  1.000-   9 1.55   1 2.06   4 2.06
  26  0.632  0.968  0.500-  10 1.55   3 2.06   2 2.06
  27  0.632  0.031  0.000-  11 1.55   2 2.06   3 2.06
  28  0.132  0.969  0.500-  12 1.55   4 2.06   1 2.06
  29  0.868  0.968  0.500-  10 1.55   4 2.06   1 2.06
  30  0.368  0.032  1.000-   9 1.55   2 2.06   3 2.06
  31  0.368  0.969  0.500-  12 1.55   2 2.06   3 2.06
  32  0.868  0.031  0.000-  11 1.55   4 2.06   1 2.06
  33  0.500  0.753  0.788-  13 1.51   2 1.95
  34  1.000  0.247  0.712-  14 1.51   1 1.95
  35  1.000  0.247  0.288-  14 1.51   4 1.95
  36  0.500  0.753  0.212-  13 1.51   3 1.95
  37  0.000  0.753  0.788-  15 1.51   1 1.95
  38  0.500  0.247  0.712-  16 1.51   2 1.95
  39  0.500  0.247  0.288-  16 1.51   3 1.95
  40  0.000  0.753  0.212-  15 1.51   4 1.95
  41  0.382  0.531  1.000-  13 1.55   5 2.06   8 2.06
  42  0.882  0.469  0.500-  14 1.55   7 2.06   6 2.06
  43  0.882  0.531  0.000-  15 1.55   7 2.06   6 2.06
  44  0.382  0.469  0.500-  16 1.55   5 2.06   8 2.06
  45  0.118  0.469  0.500-  14 1.55   5 2.06   8 2.06
  46  0.618  0.531  0.000-  13 1.55   7 2.06   6 2.06
  47  0.618  0.469  0.500-  16 1.55   7 2.06   6 2.06
  48  0.118  0.531  1.000-  15 1.55   5 2.06   8 2.06
 
  LATTYP: Found a simple orthorhombic cell.
 ALAT       =     5.9397136954
 B/A-ratio  =     1.3174506564
 C/A-ratio  =     1.7993503182
  
  Lattice vectors:
  
 A1 = (  -4.2591415971,  -4.0808179006,   0.6977369864)
 A2 = (   0.6637430183,   0.6359531794,   7.7711010320)
 A3 = (  -7.3940144910,   7.7171169102,   0.0000000590)


Analysis of symmetry for initial positions (statically):
=====================================================================
 Subroutine PRICEL returns:
 Original cell was already a primitive cell.
 

 Routine SETGRP: Setting up the symmetry group for a 
 simple orthorhombic supercell.


 Subroutine GETGRP returns: Found  2 space group operations
 (whereof  1 operations were pure point group operations)
 out of a pool of  8 trial point group operations.


The static configuration has the point symmetry C_1 .
 The point group associated with its full space group is C_1h.


Analysis of symmetry for dynamics (positions and initial velocities):
=====================================================================
 Subroutine PRICEL returns:
 Original cell was already a primitive cell.
 

 Routine SETGRP: Setting up the symmetry group for a 
 simple orthorhombic supercell.


 Subroutine GETGRP returns: Found  2 space group operations
 (whereof  1 operations were pure point group operations)
 out of a pool of  8 trial point group operations.


The dynamic configuration has the point symmetry C_1 .
 The point group associated with its full space group is C_1h.


Analysis of structural, dynamic, and magnetic symmetry:
=====================================================================
 Subroutine PRICEL returns:
 Original cell was already a primitive cell.
 

 Routine SETGRP: Setting up the symmetry group for a 
 simple orthorhombic supercell.


 Subroutine GETGRP returns: Found  2 space group operations
 (whereof  1 operations were pure point group operations)
 out of a pool of  8 trial point group operations.


The magnetic configuration has the point symmetry C_1 .
 The point group associated with its full space group is C_1h.


 Subroutine INISYM returns: Found  2 space group operations
 (whereof  1 operations are pure point group operations),
 and found     1 'primitive' translations

 
 
 KPOINTS: Automatic mesh                          

Automatic generation of k-mesh.
Space group operators:
 irot       det(A)        alpha          n_x          n_y          n_z        tau_x        tau_y        tau_z
    1     1.000000     0.000000     1.000000     0.000000     0.000000     0.000000     0.000000     0.000000
    2    -1.000000   180.000000     0.084820     0.081269     0.993076    -0.500000    -0.000000    -0.500000
 
 Subroutine IBZKPT returns following result:
 ===========================================
 
 Found    112 irreducible k-points:
 
 Following reciprocal coordinates:
            Coordinates               Weight
  0.000000  0.000000  0.000000      1.000000
  0.200000  0.000000 -0.000000      2.000000
  0.400000  0.000000 -0.000000      2.000000
  0.000000  0.142857  0.000000      2.000000
  0.200000  0.142857  0.000000      4.000000
  0.400000  0.142857  0.000000      4.000000
  0.000000  0.285714  0.000000      2.000000
  0.200000  0.285714  0.000000      4.000000
  0.400000  0.285714  0.000000      4.000000
  0.000000  0.428571  0.000000      2.000000
  0.200000  0.428571  0.000000      4.000000
  0.400000  0.428571 -0.000000      4.000000
 -0.000000 -0.000000  0.090909      2.000000
  0.200000 -0.000000  0.090909      2.000000
  0.400000 -0.000000  0.090909      2.000000
 -0.400000 -0.000000  0.090909      2.000000
 -0.200000 -0.000000  0.090909      2.000000
 -0.000000  0.142857  0.090909      4.000000
  0.200000  0.142857  0.090909      4.000000
  0.400000  0.142857  0.090909      4.000000
 -0.400000  0.142857  0.090909      4.000000
 -0.200000  0.142857  0.090909      4.000000
 -0.000000  0.285714  0.090909      4.000000
  0.200000  0.285714  0.090909      4.000000
  0.400000  0.285714  0.090909      4.000000
 -0.400000  0.285714  0.090909      4.000000
 -0.200000  0.285714  0.090909      4.000000
 -0.000000  0.428571  0.090909      4.000000
  0.200000  0.428571  0.090909      4.000000
  0.400000  0.428571  0.090909      4.000000
 -0.400000  0.428571  0.090909      4.000000
 -0.200000  0.428571  0.090909      4.000000
 -0.000000 -0.000000  0.181818      2.000000
  0.200000 -0.000000  0.181818      2.000000
  0.400000 -0.000000  0.181818      2.000000
 -0.400000 -0.000000  0.181818      2.000000
 -0.200000 -0.000000  0.181818      2.000000
 -0.000000  0.142857  0.181818      4.000000
  0.200000  0.142857  0.181818      4.000000
  0.400000  0.142857  0.181818      4.000000
 -0.400000  0.142857  0.181818      4.000000
 -0.200000  0.142857  0.181818      4.000000
 -0.000000  0.285714  0.181818      4.000000
  0.200000  0.285714  0.181818      4.000000
  0.400000  0.285714  0.181818      4.000000
 -0.400000  0.285714  0.181818      4.000000
 -0.200000  0.285714  0.181818      4.000000
 -0.000000  0.428571  0.181818      4.000000
  0.200000  0.428571  0.181818      4.000000
  0.400000  0.428571  0.181818      4.000000
 -0.400000  0.428571  0.181818      4.000000
 -0.200000  0.428571  0.181818      4.000000
 -0.000000 -0.000000  0.272727      2.000000
  0.200000 -0.000000  0.272727      2.000000
  0.400000 -0.000000  0.272727      2.000000
 -0.400000 -0.000000  0.272727      2.000000
 -0.200000 -0.000000  0.272727      2.000000
 -0.000000  0.142857  0.272727      4.000000
  0.200000  0.142857  0.272727      4.000000
  0.400000  0.142857  0.272727      4.000000
 -0.400000  0.142857  0.272727      4.000000
 -0.200000  0.142857  0.272727      4.000000
 -0.000000  0.285714  0.272727      4.000000
  0.200000  0.285714  0.272727      4.000000
  0.400000  0.285714  0.272727      4.000000
 -0.400000  0.285714  0.272727      4.000000
 -0.200000  0.285714  0.272727      4.000000
 -0.000000  0.428571  0.272727      4.000000
  0.200000  0.428571  0.272727      4.000000
  0.400000  0.428571  0.272727      4.000000
 -0.400000  0.428571  0.272727      4.000000
 -0.200000  0.428571  0.272727      4.000000
 -0.000000 -0.000000  0.363636      2.000000
  0.200000 -0.000000  0.363636      2.000000
  0.400000 -0.000000  0.363636      2.000000
 -0.400000 -0.000000  0.363636      2.000000
 -0.200000 -0.000000  0.363636      2.000000
 -0.000000  0.142857  0.363636      4.000000
  0.200000  0.142857  0.363636      4.000000
  0.400000  0.142857  0.363636      4.000000
 -0.400000  0.142857  0.363636      4.000000
 -0.200000  0.142857  0.363636      4.000000
 -0.000000  0.285714  0.363636      4.000000
  0.200000  0.285714  0.363636      4.000000
  0.400000  0.285714  0.363636      4.000000
 -0.400000  0.285714  0.363636      4.000000
 -0.200000  0.285714  0.363636      4.000000
 -0.000000  0.428571  0.363636      4.000000
  0.200000  0.428571  0.363636      4.000000
  0.400000  0.428571  0.363636      4.000000
 -0.400000  0.428571  0.363636      4.000000
 -0.200000  0.428571  0.363636      4.000000
  0.000000  0.000000  0.454545      2.000000
  0.200000 -0.000000  0.454545      2.000000
  0.400000 -0.000000  0.454545      2.000000
 -0.400000 -0.000000  0.454545      2.000000
 -0.200000 -0.000000  0.454545      2.000000
 -0.000000  0.142857  0.454545      4.000000
  0.200000  0.142857  0.454545      4.000000
  0.400000  0.142857  0.454545      4.000000
 -0.400000  0.142857  0.454545      4.000000
 -0.200000  0.142857  0.454545      4.000000
 -0.000000  0.285714  0.454545      4.000000
  0.200000  0.285714  0.454545      4.000000
  0.400000  0.285714  0.454545      4.000000
 -0.400000  0.285714  0.454545      4.000000
 -0.200000  0.285714  0.454545      4.000000
 -0.000000  0.428571  0.454545      4.000000
  0.200000  0.428571  0.454545      4.000000
  0.400000  0.428571  0.454545      4.000000
 -0.400000  0.428571  0.454545      4.000000
 -0.200000  0.428571  0.454545      4.000000
 
 Following cartesian coordinates:
            Coordinates               Weight
  0.000000  0.000000  0.000000      1.000000
  0.012946 -0.013512  0.000000      2.000000
  0.025893 -0.027024  0.000000      2.000000
 -0.001548 -0.001484 -0.018129      2.000000
  0.011398 -0.014996 -0.018129      4.000000
  0.024344 -0.028508 -0.018129      4.000000
 -0.003097 -0.002967 -0.036259      2.000000
  0.009849 -0.016479 -0.036259      4.000000
  0.022796 -0.029991 -0.036259      4.000000
 -0.004645 -0.004451 -0.054388      2.000000
  0.008301 -0.017963 -0.054388      4.000000
  0.021247 -0.031475 -0.054388      4.000000
  0.010975  0.010515 -0.001798      2.000000
  0.023921 -0.002997 -0.001798      2.000000
  0.036868 -0.016509 -0.001798      2.000000
 -0.014918  0.037539 -0.001798      2.000000
 -0.001972  0.024027 -0.001798      2.000000
  0.009426  0.009032 -0.019927      4.000000
  0.022373 -0.004480 -0.019927      4.000000
  0.035319 -0.017992 -0.019927      4.000000
 -0.016466  0.036056 -0.019927      4.000000
 -0.003520  0.022544 -0.019927      4.000000
  0.007878  0.007548 -0.038057      4.000000
  0.020824 -0.005964 -0.038057      4.000000
  0.033771 -0.019476 -0.038057      4.000000
 -0.018015  0.034572 -0.038057      4.000000
 -0.005068  0.021060 -0.038057      4.000000
  0.006329  0.006064 -0.056186      4.000000
  0.019276 -0.007448 -0.056186      4.000000
  0.032222 -0.020960 -0.056186      4.000000
 -0.019563  0.033089 -0.056186      4.000000
 -0.006617  0.019576 -0.056186      4.000000
  0.021950  0.021031 -0.003596      2.000000
  0.034896  0.007519 -0.003596      2.000000
  0.047842 -0.005993 -0.003596      2.000000
 -0.003943  0.048055 -0.003596      2.000000
  0.009003  0.034543 -0.003596      2.000000
  0.020401  0.019547 -0.021725      4.000000
  0.033348  0.006035 -0.021725      4.000000
  0.046294 -0.007477 -0.021725      4.000000
 -0.005491  0.046571 -0.021725      4.000000
  0.007455  0.033059 -0.021725      4.000000
  0.018853  0.018063 -0.039855      4.000000
  0.031799  0.004551 -0.039855      4.000000
  0.044745 -0.008961 -0.039855      4.000000
 -0.007040  0.045088 -0.039855      4.000000
  0.005906  0.031575 -0.039855      4.000000
  0.017304  0.016580 -0.057984      4.000000
  0.030251  0.003068 -0.057984      4.000000
  0.043197 -0.010444 -0.057984      4.000000
 -0.008588  0.043604 -0.057984      4.000000
  0.004358  0.030092 -0.057984      4.000000
  0.032924  0.031546 -0.005394      2.000000
  0.045871  0.018034 -0.005394      2.000000
  0.058817  0.004522 -0.005394      2.000000
  0.007032  0.058570 -0.005394      2.000000
  0.019978  0.045058 -0.005394      2.000000
  0.031376  0.030062 -0.023523      4.000000
  0.044322  0.016550 -0.023523      4.000000
  0.057269  0.003038 -0.023523      4.000000
  0.005483  0.057086 -0.023523      4.000000
  0.018430  0.043574 -0.023523      4.000000
  0.029828  0.028579 -0.041653      4.000000
  0.042774  0.015067 -0.041653      4.000000
  0.055720  0.001555 -0.041653      4.000000
  0.003935  0.055603 -0.041653      4.000000
  0.016881  0.042091 -0.041653      4.000000
  0.028279  0.027095 -0.059782      4.000000
  0.041225  0.013583 -0.059782      4.000000
  0.054172  0.000071 -0.059782      4.000000
  0.002386  0.054119 -0.059782      4.000000
  0.015333  0.040607 -0.059782      4.000000
  0.043899  0.042061 -0.007192      2.000000
  0.056846  0.028549 -0.007192      2.000000
  0.069792  0.015037 -0.007192      2.000000
  0.018007  0.069085 -0.007192      2.000000
  0.030953  0.055573 -0.007192      2.000000
  0.042351  0.040578 -0.025321      4.000000
  0.055297  0.027066 -0.025321      4.000000
  0.068244  0.013554 -0.025321      4.000000
  0.016458  0.067602 -0.025321      4.000000
  0.029404  0.054090 -0.025321      4.000000
  0.040802  0.039094 -0.043450      4.000000
  0.053749  0.025582 -0.043450      4.000000
  0.066695  0.012070 -0.043450      4.000000
  0.014910  0.066118 -0.043450      4.000000
  0.027856  0.052606 -0.043450      4.000000
  0.039254  0.037610 -0.061580      4.000000
  0.052200  0.024098 -0.061580      4.000000
  0.065147  0.010586 -0.061580      4.000000
  0.013361  0.064635 -0.061580      4.000000
  0.026308  0.051122 -0.061580      4.000000
  0.054874  0.052577 -0.008990      2.000000
  0.067820  0.039065 -0.008990      2.000000
  0.080767  0.025552 -0.008990      2.000000
  0.028981  0.079601 -0.008990      2.000000
  0.041928  0.066089 -0.008990      2.000000
  0.053326  0.051093 -0.027119      4.000000
  0.066272  0.037581 -0.027119      4.000000
  0.079218  0.024069 -0.027119      4.000000
  0.027433  0.078117 -0.027119      4.000000
  0.040379  0.064605 -0.027119      4.000000
  0.051777  0.049609 -0.045248      4.000000
  0.064724  0.036097 -0.045248      4.000000
  0.077670  0.022585 -0.045248      4.000000
  0.025885  0.076634 -0.045248      4.000000
  0.038831  0.063121 -0.045248      4.000000
  0.050229  0.048126 -0.063378      4.000000
  0.063175  0.034614 -0.063378      4.000000
  0.076121  0.021102 -0.063378      4.000000
  0.024336  0.075150 -0.063378      4.000000
  0.037282  0.061638 -0.063378      4.000000
 
 TETIRR: Found   1143 inequivalent tetrahedra from     2310


--------------------------------------------------------------------------------------------------------




 Dimension of arrays:
   k-points           NKPTS =    112   k-points in BZ     NKDIM =    112   number of bands    NBANDS=    198
   number of dos      NEDOS =   1500   number of ions     NIONS =     48
   non local maximal  LDIM  =      6   non local SUM 2l+1 LMDIM =     18
   total plane-waves  NPLWV = 230400
   max r-space proj   IRMAX =      1   max aug-charges    IRDMAX=  18204
   dimension x,y,z NGX =    80 NGY =   60 NGZ =   48
   dimension x,y,z NGXF=   160 NGYF=  120 NGZF=   96
   support grid    NGXF=   160 NGYF=  120 NGZF=   96
   ions per type =               8   8  32
   NGX,Y,Z   is equivalent  to a cutoff of  12.44, 12.75, 13.43 a.u.
   NGXF,Y,Z  is equivalent  to a cutoff of  24.89, 25.49, 26.87 a.u.

 SYSTEM =  unknown system                          
 POSCAR =  O4 P Ti                                 

 Startparameter for this run:
   NWRITE =      2    write-flag & timer
   PREC   = accura    normal or accurate (medium, high low for compatibility)
   ISTART =      1    job   : 0-new  1-cont  2-samecut
   ICHARG =      2    charge: 1-file 2-atom 10-const
   ISPIN  =      2    spin polarized calculation?
   LNONCOLLINEAR =      F non collinear calculations
   LSORBIT =      F    spin-orbit coupling
   INIWAV =      1    electr: 0-lowe 1-rand  2-diag
   LASPH  =      F    aspherical Exc in radial PAW
   METAGGA=      F    non-selfconsistent MetaGGA calc.

 Electronic Relaxation 1
   ENCUT  =  520.0 eV  38.22 Ry    6.18 a.u.  19.87 14.55 11.04*2*pi/ulx,y,z
   ENINI  =  520.0     initial cutoff
   ENAUG  =  605.4 eV  augmentation charge cutoff
   NELM   =     60;   NELMIN=  2; NELMDL= -5     # of ELM steps 
   EDIFF  = 0.1E-04   stopping-criterion for ELM
   LREAL  =      F    real-space projection
   NLSPLINE    = F    spline interpolate recip. space projectors
   LCOMPAT=      F    compatible to vasp.4.4
   GGA_COMPAT  = T    GGA compatible to vasp.4.4-vasp.4.6
   LMAXPAW     = -100 max onsite density
   LMAXMIX     =    4 max onsite mixed and CHGCAR
   VOSKOWN=      0    Vosko Wilk Nusair interpolation
   ROPT   =    0.00000   0.00000   0.00000
 Ionic relaxation
   EDIFFG = 0.1E-03   stopping-criterion for IOM
   NSW    =      0    number of steps for IOM
   NBLOCK =      1;   KBLOCK =      1    inner block; outer block 
   IBRION =     -1    ionic relax: 0-MD 1-quasi-New 2-CG
   NFREE  =      0    steps in history (QN), initial steepest desc. (CG)
   ISIF   =      4    stress and relaxation
   IWAVPR =     10    prediction:  0-non 1-charg 2-wave 3-comb
   ISYM   =      2    0-nonsym 1-usesym 2-fastsym
   LCORR  =      T    Harris-Foulkes like correction to forces

   POTIM  = 0.5000    time-step for ionic-motion
   TEIN   =    0.0    initial temperature
   TEBEG  =    0.0;   TEEND  =   0.0 temperature during run
   SMASS  =  -3.00    Nose mass-parameter (am)
   estimated Nose-frequenzy (Omega)   =  0.10E-29 period in steps =****** mass=  -0.261E-26a.u.
   SCALEE = 1.0000    scale energy and forces
   NPACO  =    256;   APACO  = 16.0  distance and # of slots for P.C.
   PSTRESS=    0.0 pullay stress

  Mass of Ions in am
   POMASS =  47.88 30.97 16.00
  Ionic Valenz
   ZVAL   =  12.00  5.00  6.00
  Atomic Wigner-Seitz radii
   RWIGS  =  -1.00 -1.00 -1.00
  virtual crystal weights 
   VCA    =   1.00  1.00  1.00
   NELECT =     328.0000    total number of electrons
   NUPDOWN=      -1.0000    fix difference up-down

 DOS related values:
   EMIN   =  10.00;   EMAX   =-10.00  energy-range for DOS
   EFERMI =   0.00
   ISMEAR =    -5;   SIGMA  =   0.20  broadening in eV -4-tet -1-fermi 0-gaus

 Electronic relaxation 2 (details)
   IALGO  =     38    algorithm
   LDIAG  =      T    sub-space diagonalisation (order eigenvalues)
   LSUBROT=      F    optimize rotation matrix (better conditioning)
   TURBO    =      0    0=normal 1=particle mesh
   IRESTART =      0    0=no restart 2=restart with 2 vectors
   NREBOOT  =      0    no. of reboots
   NMIN     =      0    reboot dimension
   EREF     =   0.00    reference energy to select bands
   IMIX   =      4    mixing-type and parameters
     AMIX     =   0.40;   BMIX     =  1.00
     AMIX_MAG =   1.60;   BMIX_MAG =  1.00
     AMIN     =   0.10
     WC   =   100.;   INIMIX=   1;  MIXPRE=   1;  MAXMIX= -45

 Intra band minimization:
   WEIMIN = 0.0000     energy-eigenvalue tresh-hold
   EBREAK =  0.13E-07  absolut break condition
   DEPER  =   0.30     relativ break condition  

   TIME   =   0.40     timestep for ELM

  volume/ion in A,a.u.               =      10.35        69.84
  Fermi-wavevector in a.u.,A,eV,Ry     =   1.425555  2.693908 27.649847  2.032206
  Thomas-Fermi vector in A             =   2.545926
 
 Write flags
   LWAVE        =      T    write WAVECAR
   LDOWNSAMPLE  =      F    k-point downsampling of WAVECAR
   LCHARG       =      T    write CHGCAR
   LVTOT        =      F    write LOCPOT, total local potential
   LVHAR        =      F    write LOCPOT, Hartree potential only
   LELF         =      T    write electronic localiz. function (ELF)
   LORBIT       =     11    0 simple, 1 ext, 2 COOP (PROOUT), +10 PAW based schemes


 Dipole corrections
   LMONO  =      F    monopole corrections only (constant potential shift)
   LDIPOL =      F    correct potential (dipole corrections)
   IDIPOL =      0    1-x, 2-y, 3-z, 4-all directions 
   EPSILON=  1.0000000 bulk dielectric constant

 LDA+U is selected, type is set to LDAUTYPE =  2
   angular momentum for each species LDAUL =     2    2    2
   U (eV)           for each species LDAUU =   2.0  2.0  2.0
   J (eV)           for each species LDAUJ =   0.0  0.0  0.0
 Exchange correlation treatment:
   GGA     =    --    GGA type
   LEXCH   =     2    internal setting for exchange type
   VOSKOWN=      0    Vosko Wilk Nusair interpolation
   LHFCALC =     F    Hartree Fock is set to
   LHFONE  =     F    Hartree Fock one center treatment
   AEXX    =    0.0000 exact exchange contribution

 Linear response parameters
   LEPSILON=     F    determine dielectric tensor
   LRPA    =     F    only Hartree local field effects (RPA)
   LNABLA  =     F    use nabla operator in PAW spheres
   LVEL    =     F    velocity operator in full k-point grid
   LINTERFAST=   F  fast interpolation
   KINTER  =     0    interpolate to denser k-point grid
   CSHIFT  =0.1000    complex shift for real part using Kramers Kronig
   OMEGAMAX=  -1.0    maximum frequency
   DEG_THRESHOLD= 0.2000000E-02 threshold for treating states as degnerate
   RTIME   =   -0.100 relaxation time in fs
  (WPLASMAI=    0.000 imaginary part of plasma frequency in eV, 0.658/RTIME)
   DFIELD  = 0.0000000 0.0000000 0.0000000 field for delta impulse in time
 
 Orbital magnetization related:
   ORBITALMAG=     F  switch on orbital magnetization
   LCHIMAG   =     F  perturbation theory with respect to B field
   DQ        =  0.001000  dq finite difference perturbation B field
   LLRAUG    =     F  two centre corrections for induced B field



--------------------------------------------------------------------------------------------------------


 Static calculation
 charge density and potential will be updated during run
 spin polarized calculation
 Variant of blocked Davidson
 Davidson routine will perform the subspace rotation
 perform sub-space diagonalisation
    after iterative eigenvector-optimisation
 modified Broyden-mixing scheme, WC =      100.0
 initial mixing is a Kerker type mixing with AMIX =  0.4000 and BMIX =      1.0000
 Hartree-type preconditioning will be used
 using additional bands           34
 reciprocal scheme for non local part
 use partial core corrections
 calculate Harris-corrections to forces 
   (improved forces if not selfconsistent)
 use of overlap-Matrix (Vanderbilt PP)
 Fermi weights with tetrahedron method with Bloechl corrections


--------------------------------------------------------------------------------------------------------


  energy-cutoff  :      520.00
  volume of cell :      496.76
      direct lattice vectors                 reciprocal lattice vectors
     7.394014491 -7.717116910 -0.000000059     0.064731815 -0.067560467  0.000000001
    -0.663743018 -0.635953179 -7.771101032    -0.010839275 -0.010385452 -0.126906193
     4.259141597  4.080817901 -0.697736986     0.120723277  0.115668801 -0.019777014

  length of vectors
    10.687625728  7.825279707  5.939713695     0.093566151  0.127790959  0.168358283


 
 old parameters found on file WAVECAR:
  energy-cutoff  :      520.00
  volume of cell :      496.76
      direct lattice vectors                 reciprocal lattice vectors
     7.683342274 -7.377668822 -0.872695076     0.067264778 -0.064588721 -0.007640124
    -0.000000358  0.919234051 -7.771101032     0.000000006  0.015011579 -0.126906193
     4.128770550  4.240500737  0.501603847     0.117027983  0.120194922  0.014217705

  length of vectors

 
 k-points in units of 2pi/SCALE and weight: Automatic mesh                          
   0.00000000  0.00000000  0.00000000       0.003
   0.01294634 -0.01351207  0.00000000       0.005
   0.02589268 -0.02702414  0.00000000       0.005
  -0.00154847 -0.00148363 -0.01812942       0.005
   0.01139788 -0.01499570 -0.01812942       0.010
   0.02434422 -0.02850777 -0.01812942       0.010
  -0.00309693 -0.00296727 -0.03625885       0.005
   0.00984941 -0.01647934 -0.03625885       0.010
   0.02279575 -0.02999141 -0.03625885       0.010
  -0.00464540 -0.00445090 -0.05438827       0.005
   0.00830094 -0.01796297 -0.05438827       0.010
   0.02124728 -0.03147504 -0.05438827       0.010
   0.01097482  0.01051533 -0.00179791       0.005
   0.02392116 -0.00299674 -0.00179791       0.005
   0.03686750 -0.01650881 -0.00179791       0.005
  -0.01491786  0.03753947 -0.00179791       0.005
  -0.00197152  0.02402740 -0.00179791       0.005
   0.00942636  0.00903169 -0.01992733       0.010
   0.02237270 -0.00448038 -0.01992733       0.010
   0.03531904 -0.01799245 -0.01992733       0.010
  -0.01646632  0.03605583 -0.01992733       0.010
  -0.00351998  0.02254376 -0.01992733       0.010
   0.00787789  0.00754806 -0.03805676       0.010
   0.02082423 -0.00596401 -0.03805676       0.010
   0.03377057 -0.01947608 -0.03805676       0.010
  -0.01801479  0.03457220 -0.03805676       0.010
  -0.00506845  0.02106013 -0.03805676       0.010
   0.00632943  0.00606443 -0.05618618       0.010
   0.01927577 -0.00744764 -0.05618618       0.010
   0.03222211 -0.02095971 -0.05618618       0.010
  -0.01956325  0.03308857 -0.05618618       0.010
  -0.00661691  0.01957650 -0.05618618       0.010
   0.02194965  0.02103065 -0.00359581       0.005
   0.03489599  0.00751858 -0.00359581       0.005
   0.04784233 -0.00599349 -0.00359581       0.005
  -0.00394303  0.04805479 -0.00359581       0.005
   0.00900331  0.03454272 -0.00359581       0.005
   0.02040118  0.01954702 -0.02172524       0.010
   0.03334752  0.00603495 -0.02172524       0.010
   0.04629386 -0.00747712 -0.02172524       0.010
  -0.00549150  0.04657116 -0.02172524       0.010
   0.00745484  0.03305909 -0.02172524       0.010
   0.01885272  0.01806339 -0.03985466       0.010
   0.03179906  0.00455132 -0.03985466       0.010
   0.04474540 -0.00896075 -0.03985466       0.010
  -0.00703996  0.04508753 -0.03985466       0.010
   0.00590638  0.03157546 -0.03985466       0.010
   0.01730425  0.01657975 -0.05798409       0.010
   0.03025059  0.00306768 -0.05798409       0.010
   0.04319693 -0.01044439 -0.05798409       0.010
  -0.00858843  0.04360389 -0.05798409       0.010
   0.00435791  0.03009182 -0.05798409       0.010
   0.03292447  0.03154598 -0.00539372       0.005
   0.04587081  0.01803391 -0.00539372       0.005
   0.05881715  0.00452184 -0.00539372       0.005
   0.00703179  0.05857012 -0.00539372       0.005
   0.01997813  0.04505805 -0.00539372       0.005
   0.03137601  0.03006235 -0.02352315       0.010
   0.04432235  0.01655028 -0.02352315       0.010
   0.05726869  0.00303821 -0.02352315       0.010
   0.00548333  0.05708649 -0.02352315       0.010
   0.01842967  0.04357442 -0.02352315       0.010
   0.02982754  0.02857871 -0.04165257       0.010
   0.04277388  0.01506664 -0.04165257       0.010
   0.05572022  0.00155458 -0.04165257       0.010
   0.00393486  0.05560285 -0.04165257       0.010
   0.01688120  0.04209078 -0.04165257       0.010
   0.02827908  0.02709508 -0.05978199       0.010
   0.04122542  0.01358301 -0.05978199       0.010
   0.05417176  0.00007094 -0.05978199       0.010
   0.00238640  0.05411922 -0.05978199       0.010
   0.01533274  0.04060715 -0.05978199       0.010
   0.04389930  0.04206131 -0.00719163       0.005
   0.05684564  0.02854924 -0.00719163       0.005
   0.06979198  0.01503717 -0.00719163       0.005
   0.01800662  0.06908545 -0.00719163       0.005
   0.03095296  0.05557338 -0.00719163       0.005
   0.04235083  0.04057767 -0.02532105       0.010
   0.05529717  0.02706561 -0.02532105       0.010
   0.06824351  0.01355354 -0.02532105       0.010
   0.01645815  0.06760181 -0.02532105       0.010
   0.02940449  0.05408974 -0.02532105       0.010
   0.04080237  0.03909404 -0.04345048       0.010
   0.05374871  0.02558197 -0.04345048       0.010
   0.06669505  0.01206990 -0.04345048       0.010
   0.01490969  0.06611818 -0.04345048       0.010
   0.02785603  0.05260611 -0.04345048       0.010
   0.03925390  0.03761041 -0.06157990       0.010
   0.05220024  0.02409834 -0.06157990       0.010
   0.06514658  0.01058627 -0.06157990       0.010
   0.01336122  0.06463455 -0.06157990       0.010
   0.02630756  0.05112248 -0.06157990       0.010
   0.05487412  0.05257664 -0.00898954       0.005
   0.06782046  0.03906457 -0.00898954       0.005
   0.08076680  0.02555250 -0.00898954       0.005
   0.02898144  0.07960077 -0.00898954       0.005
   0.04192778  0.06608870 -0.00898954       0.005
   0.05332566  0.05109300 -0.02711896       0.010
   0.06627200  0.03758093 -0.02711896       0.010
   0.07921834  0.02406886 -0.02711896       0.010
   0.02743297  0.07811714 -0.02711896       0.010
   0.04037931  0.06460507 -0.02711896       0.010
   0.05177719  0.04960937 -0.04524838       0.010
   0.06472353  0.03609730 -0.04524838       0.010
   0.07766987  0.02258523 -0.04524838       0.010
   0.02588451  0.07663351 -0.04524838       0.010
   0.03883085  0.06312144 -0.04524838       0.010
   0.05022872  0.04812573 -0.06337781       0.010
   0.06317506  0.03461367 -0.06337781       0.010
   0.07612141  0.02110160 -0.06337781       0.010
   0.02433604  0.07514987 -0.06337781       0.010
   0.03728238  0.06163780 -0.06337781       0.010
 
 k-points in reciprocal lattice and weights: Automatic mesh                          
   0.00000000  0.00000000  0.00000000       0.003
   0.20000000  0.00000000 -0.00000000       0.005
   0.40000000  0.00000000 -0.00000000       0.005
   0.00000000  0.14285714  0.00000000       0.005
   0.20000000  0.14285714  0.00000000       0.010
   0.40000000  0.14285714  0.00000000       0.010
   0.00000000  0.28571429  0.00000000       0.005
   0.20000000  0.28571429  0.00000000       0.010
   0.40000000  0.28571429  0.00000000       0.010
   0.00000000  0.42857143  0.00000000       0.005
   0.20000000  0.42857143  0.00000000       0.010
   0.40000000  0.42857143 -0.00000000       0.010
  -0.00000000 -0.00000000  0.09090909       0.005
   0.20000000 -0.00000000  0.09090909       0.005
   0.40000000 -0.00000000  0.09090909       0.005
  -0.40000000 -0.00000000  0.09090909       0.005
  -0.20000000 -0.00000000  0.09090909       0.005
  -0.00000000  0.14285714  0.09090909       0.010
   0.20000000  0.14285714  0.09090909       0.010
   0.40000000  0.14285714  0.09090909       0.010
  -0.40000000  0.14285714  0.09090909       0.010
  -0.20000000  0.14285714  0.09090909       0.010
  -0.00000000  0.28571429  0.09090909       0.010
   0.20000000  0.28571429  0.09090909       0.010
   0.40000000  0.28571429  0.09090909       0.010
  -0.40000000  0.28571429  0.09090909       0.010
  -0.20000000  0.28571429  0.09090909       0.010
  -0.00000000  0.42857143  0.09090909       0.010
   0.20000000  0.42857143  0.09090909       0.010
   0.40000000  0.42857143  0.09090909       0.010
  -0.40000000  0.42857143  0.09090909       0.010
  -0.20000000  0.42857143  0.09090909       0.010
  -0.00000000 -0.00000000  0.18181818       0.005
   0.20000000 -0.00000000  0.18181818       0.005
   0.40000000 -0.00000000  0.18181818       0.005
  -0.40000000 -0.00000000  0.18181818       0.005
  -0.20000000 -0.00000000  0.18181818       0.005
  -0.00000000  0.14285714  0.18181818       0.010
   0.20000000  0.14285714  0.18181818       0.010
   0.40000000  0.14285714  0.18181818       0.010
  -0.40000000  0.14285714  0.18181818       0.010
  -0.20000000  0.14285714  0.18181818       0.010
  -0.00000000  0.28571429  0.18181818       0.010
   0.20000000  0.28571429  0.18181818       0.010
   0.40000000  0.28571429  0.18181818       0.010
  -0.40000000  0.28571429  0.18181818       0.010
  -0.20000000  0.28571429  0.18181818       0.010
  -0.00000000  0.42857143  0.18181818       0.010
   0.20000000  0.42857143  0.18181818       0.010
   0.40000000  0.42857143  0.18181818       0.010
  -0.40000000  0.42857143  0.18181818       0.010
  -0.20000000  0.42857143  0.18181818       0.010
  -0.00000000 -0.00000000  0.27272727       0.005
   0.20000000 -0.00000000  0.27272727       0.005
   0.40000000 -0.00000000  0.27272727       0.005
  -0.40000000 -0.00000000  0.27272727       0.005
  -0.20000000 -0.00000000  0.27272727       0.005
  -0.00000000  0.14285714  0.27272727       0.010
   0.20000000  0.14285714  0.27272727       0.010
   0.40000000  0.14285714  0.27272727       0.010
  -0.40000000  0.14285714  0.27272727       0.010
  -0.20000000  0.14285714  0.27272727       0.010
  -0.00000000  0.28571429  0.27272727       0.010
   0.20000000  0.28571429  0.27272727       0.010
   0.40000000  0.28571429  0.27272727       0.010
  -0.40000000  0.28571429  0.27272727       0.010
  -0.20000000  0.28571429  0.27272727       0.010
  -0.00000000  0.42857143  0.27272727       0.010
   0.20000000  0.42857143  0.27272727       0.010
   0.40000000  0.42857143  0.27272727       0.010
  -0.40000000  0.42857143  0.27272727       0.010
  -0.20000000  0.42857143  0.27272727       0.010
  -0.00000000 -0.00000000  0.36363636       0.005
   0.20000000 -0.00000000  0.36363636       0.005
   0.40000000 -0.00000000  0.36363636       0.005
  -0.40000000 -0.00000000  0.36363636       0.005
  -0.20000000 -0.00000000  0.36363636       0.005
  -0.00000000  0.14285714  0.36363636       0.010
   0.20000000  0.14285714  0.36363636       0.010
   0.40000000  0.14285714  0.36363636       0.010
  -0.40000000  0.14285714  0.36363636       0.010
  -0.20000000  0.14285714  0.36363636       0.010
  -0.00000000  0.28571429  0.36363636       0.010
   0.20000000  0.28571429  0.36363636       0.010
   0.40000000  0.28571429  0.36363636       0.010
  -0.40000000  0.28571429  0.36363636       0.010
  -0.20000000  0.28571429  0.36363636       0.010
  -0.00000000  0.42857143  0.36363636       0.010
   0.20000000  0.42857143  0.36363636       0.010
   0.40000000  0.42857143  0.36363636       0.010
  -0.40000000  0.42857143  0.36363636       0.010
  -0.20000000  0.42857143  0.36363636       0.010
   0.00000000  0.00000000  0.45454545       0.005
   0.20000000 -0.00000000  0.45454545       0.005
   0.40000000 -0.00000000  0.45454545       0.005
  -0.40000000 -0.00000000  0.45454545       0.005
  -0.20000000 -0.00000000  0.45454545       0.005
  -0.00000000  0.14285714  0.45454545       0.010
   0.20000000  0.14285714  0.45454545       0.010
   0.40000000  0.14285714  0.45454545       0.010
  -0.40000000  0.14285714  0.45454545       0.010
  -0.20000000  0.14285714  0.45454545       0.010
  -0.00000000  0.28571429  0.45454545       0.010
   0.20000000  0.28571429  0.45454545       0.010
   0.40000000  0.28571429  0.45454545       0.010
  -0.40000000  0.28571429  0.45454545       0.010
  -0.20000000  0.28571429  0.45454545       0.010
  -0.00000000  0.42857143  0.45454545       0.010
   0.20000000  0.42857143  0.45454545       0.010
   0.40000000  0.42857143  0.45454545       0.010
  -0.40000000  0.42857143  0.45454545       0.010
  -0.20000000  0.42857143  0.45454545       0.010
 
 position of ions in fractional coordinates (direct lattice) 
   0.99999911  0.00006264  0.74988021
   0.49999925  0.99993781  0.75012004
   0.49999911  0.99993734  0.24988021
   0.99999925  0.00006217  0.25012004
   0.25000058  0.50032719  0.74940535
   0.75000058  0.49967304  0.75059454
   0.75000058  0.49967281  0.24940535
   0.25000058  0.50032696  0.25059454
   0.24995995  0.14685686  0.00000248
   0.74995998  0.85314317  0.50000248
   0.75004134  0.14600460  0.99999727
   0.25004134  0.85399540  0.49999727
   0.49980374  0.64634421  0.00000053
   0.99980371  0.35365579  0.50000053
   0.00019495  0.64651264  0.99999946
   0.50019493  0.35348736  0.49999946
   0.24997653  0.25332634  0.78789778
   0.74997649  0.74667651  0.71209775
   0.74997654  0.74667363  0.28789781
   0.24997648  0.25332347  0.21209772
   0.75002077  0.25249525  0.78792512
   0.25002079  0.74750162  0.71208000
   0.25002077  0.74750475  0.28792512
   0.75002079  0.25249838  0.21208002
   0.13171483  0.03158966  0.99999993
   0.63171483  0.96841033  0.49999993
   0.63184398  0.03070205  0.00000019
   0.13184398  0.96929795  0.50000019
   0.86818817  0.96846237  0.49999935
   0.36818817  0.03153763  0.99999935
   0.36827600  0.96920805  0.50000076
   0.86827597  0.03079195  0.00000076
   0.49989043  0.75283259  0.78791311
   0.99989081  0.24716848  0.71208558
   0.99989046  0.24716741  0.28791311
   0.49989078  0.75283152  0.21208558
   0.00011220  0.75299412  0.78790907
   0.50011183  0.24700550  0.71209174
   0.50011222  0.24700588  0.28790910
   0.00011181  0.75299450  0.21209171
   0.38150153  0.53126890  0.99999920
   0.88150150  0.46873110  0.49999920
   0.88203705  0.53106362  0.00000063
   0.38203705  0.46893638  0.50000063
   0.11794786  0.46911681  0.50000051
   0.61794785  0.53088322  0.00000051
   0.61849030  0.46858867  0.49999939
   0.11849030  0.53141136  0.99999939
 
 position of ions in cartesian coordinates  (Angst):
  10.58781232 -4.65702530 -0.52370597
   6.22816746 -1.43336304 -8.29400425
   4.09757442 -3.47474929 -7.94496479
   8.45926438 -6.69645635 -0.17500119
   4.70824276  0.81071838 -4.41098102
   8.41074911 -3.04257118 -4.40672728
   6.27611355 -5.08783286 -4.05702725
   2.58373703 -1.22483754 -4.06294047
   1.75074286 -2.02235411 -1.14124122
   7.10852852 -4.28966887 -6.97873207
   9.70803701 -1.80020207 -1.83235164
   3.41153502 -0.43230156 -6.98535112
   3.26655193 -4.26808641 -5.02280658
   9.28739965 -5.90009955 -3.09716378
   3.83146253  3.66815942 -5.72185162
   5.59339227 -2.04445744 -3.09585416
   5.03595468  1.12506562 -2.51837005
   8.08266088 -3.35656631 -6.29935555
   6.27593555 -5.08764756 -6.00335320
   2.58354224 -1.22466737 -2.11659068
   8.73395711 -2.73319416 -2.51193065
   4.38535789  0.50105316 -6.30575520
   2.57881996 -1.22984752 -6.00983095
   6.28134934 -5.08311530 -2.11016652
   5.21207522  3.04426938 -0.94322339
   6.15770349 -3.45047211 -7.87448300
   4.65148611 -4.89553820 -0.23858894
   2.46106319  0.40652616 -7.88138094
   7.90615384 -5.27540007 -7.87488702
   6.96059465  1.21940761 -0.94281866
   4.20930703 -1.41798784 -7.88068272
   6.39961039 -6.72016632 -0.23928794
   6.55234322 -1.12114926 -6.40009426
  10.26202407 -4.96757024 -2.41761971
   8.45541161 -6.69853751 -2.12165060
   4.09981550 -3.47099853 -5.99830981
   2.85685131  2.73557854 -6.40134668
   6.56678551 -1.11058867 -2.41635747
   4.76013417 -2.84160405 -2.12039251
   0.40436054  0.38577553 -5.99958057
   6.72734000  0.79886056 -4.82628072
   8.33628525 -5.06033550 -3.99142474
   6.16930765 -7.14451208 -4.12694955
   4.64310773 -1.20603466 -3.99302093
   2.69030817  0.83185728 -3.99442300
   4.21674748 -5.10639055 -4.12554752
   6.39167195 -3.03055592 -3.99031804
   4.78253738  2.82845921 -4.82738790
 


--------------------------------------------------------------------------------------------------------


 k-point  1 :   0.0000 0.0000 0.0000  plane waves:   13385
 k-point  2 :   0.2000 0.0000-0.0000  plane waves:   13366
 k-point  3 :   0.4000 0.0000-0.0000  plane waves:   13362
 k-point  4 :   0.0000 0.1429 0.0000  plane waves:   13377
 k-point  5 :   0.2000 0.1429 0.0000  plane waves:   13356
 k-point  6 :   0.4000 0.1429 0.0000  plane waves:   13386
 k-point  7 :   0.0000 0.2857 0.0000  plane waves:   13345
 k-point  8 :   0.2000 0.2857 0.0000  plane waves:   13337
 k-point  9 :   0.4000 0.2857 0.0000  plane waves:   13354
 k-point 10 :   0.0000 0.4286 0.0000  plane waves:   13351
 k-point 11 :   0.2000 0.4286 0.0000  plane waves:   13338
 k-point 12 :   0.4000 0.4286-0.0000  plane waves:   13322
 k-point 13 :  -0.0000-0.0000 0.0909  plane waves:   13354
 k-point 14 :   0.2000-0.0000 0.0909  plane waves:   13364
 k-point 15 :   0.4000-0.0000 0.0909  plane waves:   13385
 k-point 16 :  -0.4000-0.0000 0.0909  plane waves:   13385
 k-point 17 :  -0.2000-0.0000 0.0909  plane waves:   13364
 k-point 18 :  -0.0000 0.1429 0.0909  plane waves:   13367
 k-point 19 :   0.2000 0.1429 0.0909  plane waves:   13361
 k-point 20 :   0.4000 0.1429 0.0909  plane waves:   13388
 k-point 21 :  -0.4000 0.1429 0.0909  plane waves:   13388
 k-point 22 :  -0.2000 0.1429 0.0909  plane waves:   13361
 k-point 23 :  -0.0000 0.2857 0.0909  plane waves:   13373
 k-point 24 :   0.2000 0.2857 0.0909  plane waves:   13360
 k-point 25 :   0.4000 0.2857 0.0909  plane waves:   13359
 k-point 26 :  -0.4000 0.2857 0.0909  plane waves:   13359
 k-point 27 :  -0.2000 0.2857 0.0909  plane waves:   13360
 k-point 28 :  -0.0000 0.4286 0.0909  plane waves:   13362
 k-point 29 :   0.2000 0.4286 0.0909  plane waves:   13339
 k-point 30 :   0.4000 0.4286 0.0909  plane waves:   13344
 k-point 31 :  -0.4000 0.4286 0.0909  plane waves:   13344
 k-point 32 :  -0.2000 0.4286 0.0909  plane waves:   13339
 k-point 33 :  -0.0000-0.0000 0.1818  plane waves:   13376
 k-point 34 :   0.2000-0.0000 0.1818  plane waves:   13371
 k-point 35 :   0.4000-0.0000 0.1818  plane waves:   13391
 k-point 36 :  -0.4000-0.0000 0.1818  plane waves:   13391
 k-point 37 :  -0.2000-0.0000 0.1818  plane waves:   13371
 k-point 38 :  -0.0000 0.1429 0.1818  plane waves:   13367
 k-point 39 :   0.2000 0.1429 0.1818  plane waves:   13377
 k-point 40 :   0.4000 0.1429 0.1818  plane waves:   13377
 k-point 41 :  -0.4000 0.1429 0.1818  plane waves:   13377
 k-point 42 :  -0.2000 0.1429 0.1818  plane waves:   13377
 k-point 43 :  -0.0000 0.2857 0.1818  plane waves:   13364
 k-point 44 :   0.2000 0.2857 0.1818  plane waves:   13374
 k-point 45 :   0.4000 0.2857 0.1818  plane waves:   13372
 k-point 46 :  -0.4000 0.2857 0.1818  plane waves:   13372
 k-point 47 :  -0.2000 0.2857 0.1818  plane waves:   13374
 k-point 48 :  -0.0000 0.4286 0.1818  plane waves:   13355
 k-point 49 :   0.2000 0.4286 0.1818  plane waves:   13370
 k-point 50 :   0.4000 0.4286 0.1818  plane waves:   13373
 k-point 51 :  -0.4000 0.4286 0.1818  plane waves:   13373
 k-point 52 :  -0.2000 0.4286 0.1818  plane waves:   13370
 k-point 53 :  -0.0000-0.0000 0.2727  plane waves:   13394
 k-point 54 :   0.2000-0.0000 0.2727  plane waves:   13385
 k-point 55 :   0.4000-0.0000 0.2727  plane waves:   13379
 k-point 56 :  -0.4000-0.0000 0.2727  plane waves:   13379
 k-point 57 :  -0.2000-0.0000 0.2727  plane waves:   13385
 k-point 58 :  -0.0000 0.1429 0.2727  plane waves:   13381
 k-point 59 :   0.2000 0.1429 0.2727  plane waves:   13386
 k-point 60 :   0.4000 0.1429 0.2727  plane waves:   13383
 k-point 61 :  -0.4000 0.1429 0.2727  plane waves:   13383
 k-point 62 :  -0.2000 0.1429 0.2727  plane waves:   13386
 k-point 63 :  -0.0000 0.2857 0.2727  plane waves:   13380
 k-point 64 :   0.2000 0.2857 0.2727  plane waves:   13382
 k-point 65 :   0.4000 0.2857 0.2727  plane waves:   13384
 k-point 66 :  -0.4000 0.2857 0.2727  plane waves:   13384
 k-point 67 :  -0.2000 0.2857 0.2727  plane waves:   13382
 k-point 68 :  -0.0000 0.4286 0.2727  plane waves:   13352
 k-point 69 :   0.2000 0.4286 0.2727  plane waves:   13371
 k-point 70 :   0.4000 0.4286 0.2727  plane waves:   13380
 k-point 71 :  -0.4000 0.4286 0.2727  plane waves:   13380
 k-point 72 :  -0.2000 0.4286 0.2727  plane waves:   13371
 k-point 73 :  -0.0000-0.0000 0.3636  plane waves:   13416
 k-point 74 :   0.2000-0.0000 0.3636  plane waves:   13387
 k-point 75 :   0.4000-0.0000 0.3636  plane waves:   13388
 k-point 76 :  -0.4000-0.0000 0.3636  plane waves:   13388
 k-point 77 :  -0.2000-0.0000 0.3636  plane waves:   13387
 k-point 78 :  -0.0000 0.1429 0.3636  plane waves:   13395
 k-point 79 :   0.2000 0.1429 0.3636  plane waves:   13386
 k-point 80 :   0.4000 0.1429 0.3636  plane waves:   13385
 k-point 81 :  -0.4000 0.1429 0.3636  plane waves:   13385
 k-point 82 :  -0.2000 0.1429 0.3636  plane waves:   13386
 k-point 83 :  -0.0000 0.2857 0.3636  plane waves:   13383
 k-point 84 :   0.2000 0.2857 0.3636  plane waves:   13377
 k-point 85 :   0.4000 0.2857 0.3636  plane waves:   13390
 k-point 86 :  -0.4000 0.2857 0.3636  plane waves:   13390
 k-point 87 :  -0.2000 0.2857 0.3636  plane waves:   13377
 k-point 88 :  -0.0000 0.4286 0.3636  plane waves:   13364
 k-point 89 :   0.2000 0.4286 0.3636  plane waves:   13379
 k-point 90 :   0.4000 0.4286 0.3636  plane waves:   13397
 k-point 91 :  -0.4000 0.4286 0.3636  plane waves:   13397
 k-point 92 :  -0.2000 0.4286 0.3636  plane waves:   13379
 k-point 93 :   0.0000 0.0000 0.4545  plane waves:   13398
 k-point 94 :   0.2000-0.0000 0.4545  plane waves:   13421
 k-point 95 :   0.4000-0.0000 0.4545  plane waves:   13389
 k-point 96 :  -0.4000-0.0000 0.4545  plane waves:   13389
 k-point 97 :  -0.2000-0.0000 0.4545  plane waves:   13421
 k-point 98 :  -0.0000 0.1429 0.4545  plane waves:   13394
 k-point 99 :   0.2000 0.1429 0.4545  plane waves:   13404
 k-point ** :   0.4000 0.1429 0.4545  plane waves:   13400
 k-point ** :  -0.4000 0.1429 0.4545  plane waves:   13400
 k-point ** :  -0.2000 0.1429 0.4545  plane waves:   13404
 k-point ** :  -0.0000 0.2857 0.4545  plane waves:   13381
 k-point ** :   0.2000 0.2857 0.4545  plane waves:   13367
 k-point ** :   0.4000 0.2857 0.4545  plane waves:   13405
 k-point ** :  -0.4000 0.2857 0.4545  plane waves:   13405
 k-point ** :  -0.2000 0.2857 0.4545  plane waves:   13367
 k-point ** :  -0.0000 0.4286 0.4545  plane waves:   13373
 k-point ** :   0.2000 0.4286 0.4545  plane waves:   13378
 k-point ** :   0.4000 0.4286 0.4545  plane waves:   13377
 k-point ** :  -0.4000 0.4286 0.4545  plane waves:   13377
 k-point ** :  -0.2000 0.4286 0.4545  plane waves:   13378

 maximum and minimum number of plane-waves per node :       442      394

 maximum number of plane-waves:     13421
 maximum index in each direction: 
   IXMAX=   20   IYMAX=   14   IZMAX=   11
   IXMIN=  -20   IYMIN=  -14   IZMIN=  -11


 parallel 3D FFT for wavefunctions:
    minimum data exchange during FFTs selected (reduces bandwidth)
 parallel 3D FFT for charge:
    minimum data exchange during FFTs selected (reduces bandwidth)


 total amount of memory used by VASP MPI-rank0   380605. kBytes
=======================================================================

   base      :      30000. kBytes
   nonl-proj :      20987. kBytes
   fftplans  :       2236. kBytes
   grid      :       5857. kBytes
   one-center:         62. kBytes
   wavefun   :     321463. kBytes
 
     INWAV:  cpu time   24.4785: real time   27.1056
 Broyden mixing: mesh for mixing (old mesh)
   NGX = 39   NGY = 29   NGZ = 23
  (NGX  =160   NGY  =120   NGZ  = 96)
  gives a total of  26013 points

 initial charge density was supplied:
 charge density of overlapping atoms calculated
 number of electron     328.0000000 magnetization       4.0000000
 keeping initial charge density in first step


--------------------------------------------------------------------------------------------------------


 Maximum index for augmentation-charges          839 (set IRDMAX)


--------------------------------------------------------------------------------------------------------


 First call to EWALD:  gamma=   0.224
 Maximum number of real-space cells 2x 3x 3
 Maximum number of reciprocal cells 4x 3x 2

    FEWALD:  cpu time    0.0046: real time    0.0046


--------------------------------------- Iteration      1(   1)  ---------------------------------------


    POTLOK:  cpu time    0.0248: real time    0.0342
    SETDIJ:  cpu time    0.0229: real time    0.0350
     EDDAV:  cpu time  121.6458: real time  122.4496
 BZINTS: Fermi energy:  9.684191;328.000000 electrons
         Band energy:***********;  BLOECHL correction: -0.015350
       DOS:  cpu time    0.6318: real time    0.6431
    --------------------------------------------
      LOOP:  cpu time  122.3253: real time  123.1619

 eigenvalue-minimisations  :132800
 total energy-change (2. order) :-0.4813293E+03  (-0.3034916E+02)
 number of electron     328.0000000 magnetization       4.0000000
 augmentation part      328.0000000 magnetization       4.0000000

 Free energy of the ion-electron system (eV)
  ---------------------------------------------------
  alpha Z        PSCENC =      1007.26833956
  Ewald energy   TEWEN  =    -20062.82299400
  -Hartree energ DENC   =     -7654.49416418
  -exchange      EXHF   =         0.00000000
  -V(xc)+E(xc)   XCENC  =      1447.21864816
  PAW double counting   =     22269.65730806   -22135.70195160
  entropy T*S    EENTRO =         0.00000000
  eigenvalues    EBANDS =     -3280.83093124
  atomic energy  EATOM  =     27928.37644440
  Solvation  Ediel_sol  =         0.00000000
  ---------------------------------------------------
  free energy    TOTEN  =      -481.32930084 eV

  energy without entropy =     -481.32930084  energy(sigma->0) =     -481.32930084


--------------------------------------------------------------------------------------------------------




--------------------------------------- Iteration      1(   2)  ---------------------------------------


     EDDAV:  cpu time  107.4523: real time  107.8868
 BZINTS: Fermi energy:  9.653601;328.000000 electrons
         Band energy:***********;  BLOECHL correction: -0.015185
       DOS:  cpu time    0.6056: real time    0.6074
    --------------------------------------------
      LOOP:  cpu time  108.0579: real time  108.4943

 eigenvalue-minimisations  :113184
 total energy-change (2. order) :-0.2537921E+01  (-0.2528114E+01)
 number of electron     328.0000000 magnetization       4.0000000
 augmentation part      328.0000000 magnetization       4.0000000

 Free energy of the ion-electron system (eV)
  ---------------------------------------------------
  alpha Z        PSCENC =      1007.26833956
  Ewald energy   TEWEN  =    -20062.82299400
  -Hartree energ DENC   =     -7654.49416418
  -exchange      EXHF   =         0.00000000
  -V(xc)+E(xc)   XCENC  =      1447.21864816
  PAW double counting   =     22269.65730806   -22135.70195160
  entropy T*S    EENTRO =         0.00000000
  eigenvalues    EBANDS =     -3283.36885230
  atomic energy  EATOM  =     27928.37644440
  Solvation  Ediel_sol  =         0.00000000
  ---------------------------------------------------
  free energy    TOTEN  =      -483.86722191 eV

  energy without entropy =     -483.86722191  energy(sigma->0) =     -483.86722191


--------------------------------------------------------------------------------------------------------




--------------------------------------- Iteration      1(   3)  ---------------------------------------


     EDDAV:  cpu time  123.5774: real time  123.9556
 BZINTS: Fermi energy:  9.651211;328.000000 electrons
         Band energy:***********;  BLOECHL correction: -0.015206
       DOS:  cpu time    0.5887: real time    0.5902
    --------------------------------------------
      LOOP:  cpu time  124.1661: real time  124.5458

 eigenvalue-minimisations  :135508
 total energy-change (2. order) :-0.9835201E-01  (-0.9797883E-01)
 number of electron     328.0000000 magnetization       4.0000000
 augmentation part      328.0000000 magnetization       4.0000000

 Free energy of the ion-electron system (eV)
  ---------------------------------------------------
  alpha Z        PSCENC =      1007.26833956
  Ewald energy   TEWEN  =    -20062.82299400
  -Hartree energ DENC   =     -7654.49416418
  -exchange      EXHF   =         0.00000000
  -V(xc)+E(xc)   XCENC  =      1447.21864816
  PAW double counting   =     22269.65730806   -22135.70195160
  entropy T*S    EENTRO =         0.00000000
  eigenvalues    EBANDS =     -3283.46720432
  atomic energy  EATOM  =     27928.37644440
  Solvation  Ediel_sol  =         0.00000000
  ---------------------------------------------------
  free energy    TOTEN  =      -483.96557392 eV

  energy without entropy =     -483.96557392  energy(sigma->0) =     -483.96557392


--------------------------------------------------------------------------------------------------------




--------------------------------------- Iteration      1(   4)  ---------------------------------------


     EDDAV:  cpu time  113.6525: real time  113.9954
 BZINTS: Fermi energy:  9.651061;328.000000 electrons
         Band energy:***********;  BLOECHL correction: -0.015206
       DOS:  cpu time    0.5888: real time    0.5906
    --------------------------------------------
      LOOP:  cpu time  114.2413: real time  114.5860

 eigenvalue-minimisations  :122232
 total energy-change (2. order) :-0.2405753E-02  (-0.2389993E-02)
 number of electron     328.0000000 magnetization       4.0000000
 augmentation part      328.0000000 magnetization       4.0000000

 Free energy of the ion-electron system (eV)
  ---------------------------------------------------
  alpha Z        PSCENC =      1007.26833956
  Ewald energy   TEWEN  =    -20062.82299400
  -Hartree energ DENC   =     -7654.49416418
  -exchange      EXHF   =         0.00000000
  -V(xc)+E(xc)   XCENC  =      1447.21864816
  PAW double counting   =     22269.65730806   -22135.70195160
  entropy T*S    EENTRO =         0.00000000
  eigenvalues    EBANDS =     -3283.46961007
  atomic energy  EATOM  =     27928.37644440
  Solvation  Ediel_sol  =         0.00000000
  ---------------------------------------------------
  free energy    TOTEN  =      -483.96797967 eV

  energy without entropy =     -483.96797967  energy(sigma->0) =     -483.96797967


--------------------------------------------------------------------------------------------------------




--------------------------------------- Iteration      1(   5)  ---------------------------------------


     EDDAV:  cpu time  123.0088: real time  123.4076
 BZINTS: Fermi energy:  9.651047;328.000000 electrons
         Band energy:***********;  BLOECHL correction: -0.015207
       DOS:  cpu time    0.6045: real time    0.6063
    CHARGE:  cpu time    4.3383: real time    4.3543
    MIXING:  cpu time    0.0057: real time    0.0116
    --------------------------------------------
      LOOP:  cpu time  127.9573: real time  128.3798

 eigenvalue-minimisations  :134616
 total energy-change (2. order) :-0.1596182E-03  (-0.1579554E-03)
 number of electron     327.9999795 magnetization       2.4389877
 augmentation part       51.5525444 magnetization       2.3394543

 Broyden mixing:
  rms(total) = 0.83852E+01    rms(broyden)= 0.83844E+01
  rms(prec ) = 0.93256E+01
  weight for this iteration     100.00

 Free energy of the ion-electron system (eV)
  ---------------------------------------------------
  alpha Z        PSCENC =      1007.26833956
  Ewald energy   TEWEN  =    -20062.82299400
  -Hartree energ DENC   =     -7654.49416418
  -exchange      EXHF   =         0.00000000
  -V(xc)+E(xc)   XCENC  =      1447.21864816
  PAW double counting   =     22269.65730806   -22135.70195160
  entropy T*S    EENTRO =         0.00000000
  eigenvalues    EBANDS =     -3283.46976969
  atomic energy  EATOM  =     27928.37644440
  Solvation  Ediel_sol  =         0.00000000
  ---------------------------------------------------
  free energy    TOTEN  =      -483.96813929 eV

  energy without entropy =     -483.96813929  energy(sigma->0) =     -483.96813929


--------------------------------------------------------------------------------------------------------




--------------------------------------- Iteration      1(   6)  ---------------------------------------


    POTLOK:  cpu time    0.0160: real time    0.0162
    SETDIJ:  cpu time    0.0126: real time    0.0127
     EDDAV:  cpu time  121.2377: real time  121.7350
 BZINTS: Fermi energy:  7.042969;328.000000 electrons
         Band energy:***********;  BLOECHL correction:  0.000000
       DOS:  cpu time    0.1189: real time    0.1192
    CHARGE:  cpu time    4.3008: real time    4.3132
    MIXING:  cpu time    0.0039: real time    0.0063
    --------------------------------------------
      LOOP:  cpu time  125.6899: real time  126.2026

 eigenvalue-minimisations  :132786
 total energy-change (2. order) : 0.7166442E+02  (-0.3488446E+02)
 number of electron     327.9999823 magnetization       1.3341520
 augmentation part       49.6493363 magnetization       1.2911526

 Broyden mixing:
  rms(total) = 0.38375E+01    rms(broyden)= 0.38367E+01
  rms(prec ) = 0.38959E+01
  weight for this iteration     100.00

 eigenvalues of (default mixing * dielectric matrix)
  average eigenvalue GAMMA=   1.0368
  1.0368

 Free energy of the ion-electron system (eV)
  ---------------------------------------------------
  alpha Z        PSCENC =      1007.26833956
  Ewald energy   TEWEN  =    -20062.82299400
  -Hartree energ DENC   =     -7854.99817360
  -exchange      EXHF   =         0.00000000
  -V(xc)+E(xc)   XCENC  =      1472.45445872
  PAW double counting   =     31969.00645109   -31868.96096100
  entropy T*S    EENTRO =         0.00000000
  eigenvalues    EBANDS =     -3002.62728060
  atomic energy  EATOM  =     27928.37644440
  Solvation  Ediel_sol  =         0.00000000
  ---------------------------------------------------
  free energy    TOTEN  =      -412.30371542 eV

  energy without entropy =     -412.30371542  energy(sigma->0) =     -412.30371542


--------------------------------------------------------------------------------------------------------




--------------------------------------- Iteration      1(   7)  ---------------------------------------


    POTLOK:  cpu time    0.0153: real time    0.0155
    SETDIJ:  cpu time    0.0126: real time    0.0127
     EDDAV:  cpu time  112.2244: real time  112.6662
 BZINTS: Fermi energy:  6.833800;328.000000 electrons
         Band energy:***********;  BLOECHL correction:  0.000000
       DOS:  cpu time    0.1166: real time    0.1169
    CHARGE:  cpu time    4.2703: real time    4.2808
    MIXING:  cpu time    0.0022: real time    0.0022
    --------------------------------------------
      LOOP:  cpu time  116.6415: real time  117.0943

 eigenvalue-minimisations  :120704
 total energy-change (2. order) :-0.2969610E+01  (-0.3836527E+01)
 number of electron     327.9999821 magnetization       0.5217114
 augmentation part       48.0592194 magnetization       0.5410126

 Broyden mixing:
  rms(total) = 0.16547E+01    rms(broyden)= 0.16547E+01
  rms(prec ) = 0.17032E+01
  weight for this iteration     100.00

 eigenvalues of (default mixing * dielectric matrix)
  average eigenvalue GAMMA=   1.2144
  0.8556  1.5731

 Free energy of the ion-electron system (eV)
  ---------------------------------------------------
  alpha Z        PSCENC =      1007.26833956
  Ewald energy   TEWEN  =    -20062.82299400
  -Hartree energ DENC   =     -7868.64524225
  -exchange      EXHF   =         0.00000000
  -V(xc)+E(xc)   XCENC  =      1473.37334166
  PAW double counting   =     41019.59075204   -40923.42843914
  entropy T*S    EENTRO =         0.00000000
  eigenvalues    EBANDS =     -2988.98552780
  atomic energy  EATOM  =     27928.37644440
  Solvation  Ediel_sol  =         0.00000000
  ---------------------------------------------------
  free energy    TOTEN  =      -415.27332552 eV

  energy without entropy =     -415.27332552  energy(sigma->0) =     -415.27332552


--------------------------------------------------------------------------------------------------------




--------------------------------------- Iteration      1(   8)  ---------------------------------------


    POTLOK:  cpu time    0.0154: real time    0.0156
    SETDIJ:  cpu time    0.0126: real time    0.0127
     EDDAV:  cpu time  109.4941: real time  109.8907
 BZINTS: Fermi energy:  6.457013;328.000000 electrons
         Band energy:***********;  BLOECHL correction:  0.000000
       DOS:  cpu time    0.1157: real time    0.1161
    CHARGE:  cpu time    4.3972: real time    4.4080
    MIXING:  cpu time    0.0021: real time    0.0021
    --------------------------------------------
      LOOP:  cpu time  114.0371: real time  114.4452

 eigenvalue-minimisations  :117094
 total energy-change (2. order) : 0.5447245E-01  (-0.2840341E+00)
 number of electron     327.9999820 magnetization       0.1941086
 augmentation part       48.1996819 magnetization       0.1664219

 Broyden mixing:
  rms(total) = 0.60665E+00    rms(broyden)= 0.60661E+00
  rms(prec ) = 0.63303E+00
  weight for this iteration     100.00

 eigenvalues of (default mixing * dielectric matrix)
  average eigenvalue GAMMA=   1.2181
  1.8488  1.0387  0.7669

 Free energy of the ion-electron system (eV)
  ---------------------------------------------------
  alpha Z        PSCENC =      1007.26833956
  Ewald energy   TEWEN  =    -20062.82299400
  -Hartree energ DENC   =     -7858.87402172
  -exchange      EXHF   =         0.00000000
  -V(xc)+E(xc)   XCENC  =      1473.20159709
  PAW double counting   =     47404.02999890   -47294.72730415
  entropy T*S    EENTRO =         0.00000000
  eigenvalues    EBANDS =     -3011.67091315
  atomic energy  EATOM  =     27928.37644440
  Solvation  Ediel_sol  =         0.00000000
  ---------------------------------------------------
  free energy    TOTEN  =      -415.21885307 eV

  energy without entropy =     -415.21885307  energy(sigma->0) =     -415.21885307


--------------------------------------------------------------------------------------------------------




--------------------------------------- Iteration      1(   9)  ---------------------------------------


    POTLOK:  cpu time    0.0153: real time    0.0155
    SETDIJ:  cpu time    0.0127: real time    0.0127
     EDDAV:  cpu time  120.8513: real time  121.3340
 BZINTS: Fermi energy:  6.465423;328.000000 electrons
         Band energy:***********;  BLOECHL correction:  0.000000
       DOS:  cpu time    0.1312: real time    0.1315
    CHARGE:  cpu time    4.2621: real time    4.2727
    MIXING:  cpu time    0.0023: real time    0.0023
    --------------------------------------------
      LOOP:  cpu time  125.2748: real time  125.7688

 eigenvalue-minimisations  :132470
 total energy-change (2. order) :-0.3728275E-01  (-0.3919874E-01)
 number of electron     327.9999820 magnetization       0.0381350
 augmentation part       48.0373866 magnetization       0.0434271

 Broyden mixing:
  rms(total) = 0.28027E+00    rms(broyden)= 0.28026E+00
  rms(prec ) = 0.29396E+00
  weight for this iteration     100.00

 eigenvalues of (default mixing * dielectric matrix)
  average eigenvalue GAMMA=   1.2670
  2.2101  1.0979  1.0979  0.6622

 Free energy of the ion-electron system (eV)
  ---------------------------------------------------
  alpha Z        PSCENC =      1007.26833956
  Ewald energy   TEWEN  =    -20062.82299400
  -Hartree energ DENC   =     -7875.65629880
  -exchange      EXHF   =         0.00000000
  -V(xc)+E(xc)   XCENC  =      1474.47657199
  PAW double counting   =     49738.25359004   -49621.88590070
  entropy T*S    EENTRO =         0.00000000
  eigenvalues    EBANDS =     -3003.26588831
  atomic energy  EATOM  =     27928.37644440
  Solvation  Ediel_sol  =         0.00000000
  ---------------------------------------------------
  free energy    TOTEN  =      -415.25613582 eV

  energy without entropy =     -415.25613582  energy(sigma->0) =     -415.25613582


--------------------------------------------------------------------------------------------------------
[...]
   46        0.000  -0.000   0.000  -0.000
   47        0.000  -0.000   0.000  -0.000
   48       -0.000   0.000   0.000   0.000
--------------------------------------------------
tot          0.000   0.000  -0.000   0.000
 
    CHARGE:  cpu time    4.2566: real time    4.2679
    FORLOC:  cpu time    0.0103: real time    0.0104
    FORNL :  cpu time   25.6683: real time   25.7731
    STRESS:  cpu time   45.7458: real time   45.9251
    FORCOR:  cpu time    0.0271: real time    0.0293
    FORHAR:  cpu time    0.0169: real time    0.0183
    MIXING:  cpu time    0.0027: real time    0.0027
    OFIELD:  cpu time    0.0007: real time    0.0037

  FORCE on cell =-STRESS in cart. coord.  units (eV):
  Direction    XX          YY          ZZ          XY          YZ          ZX
  --------------------------------------------------------------------------------------
  Alpha Z  1007.26834  1007.26834  1007.26834
  Ewald   -6542.24273 -6618.29845 -6902.38774   888.86228  -100.57522  -104.97013
  Hartree  2774.66665  2727.04225  2393.58153   556.58531   -75.88973   -79.20595
  E(xc)   -1585.59335 -1585.55392 -1585.40560    -0.46080     0.05223     0.05451
  Local   -1837.16769 -1714.11355 -1003.79678 -1438.13183   183.53048   191.55047
  n-local  -547.57290  -547.94312  -556.91986     4.33204    -1.10255    -1.14998
  augment   679.40437   678.84742   641.31339     6.50878    -3.67903    -3.83979
  Kinetic  6062.77619  6064.27858  6017.91339   -17.56791    -2.36220    -2.46012
  Fock        0.00000     0.00000     0.00000     0.00000     0.00000     0.00000
  -------------------------------------------------------------------------------------
  Total      11.54126    11.53013    11.56171     0.13035    -0.00867    -0.00905
  in kB      37.22351    37.18759    37.28947     0.42042    -0.02796    -0.02918
  external pressure =       37.23 kB  Pullay stress =        0.00 kB


 VOLUME and BASIS-vectors are now :
 -----------------------------------------------------------------------------
  energy-cutoff  :      520.00
  volume of cell :      496.76
      direct lattice vectors                 reciprocal lattice vectors
     7.394014491 -7.717116910 -0.000000059     0.064731815 -0.067560467  0.000000001
    -0.663743018 -0.635953179 -7.771101032    -0.010839275 -0.010385452 -0.126906193
     4.259141597  4.080817901 -0.697736986     0.120723277  0.115668801 -0.019777014

  length of vectors
    10.687625728  7.825279707  5.939713695     0.093566151  0.127790959  0.168358283


 FORCES acting on ions
    electron-ion (+dipol)            ewald-force                    non-local-force                 convergence-correction
 -----------------------------------------------------------------------------------------------
   -.945E-01 -.753E-01 -.166E-02   0.104E+00 0.844E-01 0.180E-02   -.856E-02 -.882E-02 -.630E-03   -.548E-04 0.383E-05 -.831E-05
   0.792E-01 0.916E-01 0.197E-02   -.888E-01 -.100E+00 -.246E-02   0.927E-02 0.805E-02 0.611E-03   0.175E-04 0.362E-04 0.154E-04
   -.919E-01 -.728E-01 0.294E-01   0.101E+00 0.815E-01 -.330E-01   -.821E-02 -.848E-02 0.348E-02   -.505E-04 0.547E-05 0.245E-04
   0.764E-01 0.890E-01 -.303E-01   -.858E-01 -.971E-01 0.334E-01   0.892E-02 0.772E-02 -.345E-02   0.138E-04 0.352E-04 -.161E-04
   -.420E+00 -.418E+00 -.387E-01   0.468E+00 0.462E+00 0.411E-01   -.449E-01 -.423E-01 -.257E-02   -.962E-04 -.147E-03 -.519E-04
   0.435E+00 0.402E+00 0.374E-01   -.482E+00 -.447E+00 -.397E-01   0.442E-01 0.430E-01 0.264E-02   0.136E-03 0.108E-03 0.383E-04
   -.402E+00 -.400E+00 0.176E+00   0.448E+00 0.443E+00 -.193E+00   -.432E-01 -.407E-01 0.169E-01   -.835E-04 -.137E-03 0.833E-04
   0.417E+00 0.385E+00 -.175E+00   -.462E+00 -.429E+00 0.192E+00   0.425E-01 0.414E-01 -.170E-01   0.125E-03 0.989E-04 -.849E-04
   -.273E+01 -.256E+01 -.317E+02   0.231E+01 0.217E+01 0.269E+02   0.415E+00 0.391E+00 0.484E+01   -.137E-03 -.135E-03 -.305E-03
   0.269E+01 0.263E+01 0.317E+02   -.228E+01 -.223E+01 -.269E+02   -.412E+00 -.402E+00 -.484E+01   -.810E-04 -.827E-04 0.343E-03
   -.270E+01 -.266E+01 -.319E+02   0.229E+01 0.226E+01 0.271E+02   0.411E+00 0.403E+00 0.483E+01   0.868E-04 0.706E-04 -.380E-03
   0.275E+01 0.256E+01 0.319E+02   -.234E+01 -.217E+01 -.271E+02   -.415E+00 -.389E+00 -.483E+01   0.148E-03 0.130E-03 0.345E-03
   -.289E+01 -.242E+01 -.318E+02   0.246E+01 0.204E+01 0.270E+02   0.432E+00 0.375E+00 0.484E+01   0.620E-04 0.906E-04 -.387E-03
   0.255E+01 0.279E+01 0.318E+02   -.215E+01 -.237E+01 -.270E+02   -.394E+00 -.417E+00 -.484E+01   0.124E-03 0.152E-03 0.350E-03
   -.255E+01 -.278E+01 -.318E+02   0.215E+01 0.236E+01 0.269E+02   0.395E+00 0.416E+00 0.484E+01   -.133E-03 -.139E-03 -.342E-03
   0.288E+01 0.243E+01 0.318E+02   -.245E+01 -.205E+01 -.269E+02   -.431E+00 -.376E+00 -.484E+01   -.710E-04 -.813E-04 0.376E-03
   0.676E+02 0.648E+02 -.112E+03   -.932E+02 -.893E+02 0.106E+03   0.256E+02 0.245E+02 0.549E+01   -.169E-03 -.234E-03 0.126E-02
   -.676E+02 -.647E+02 0.112E+03   0.932E+02 0.893E+02 -.106E+03   -.256E+02 -.245E+02 -.550E+01   0.255E-03 0.293E-03 -.974E-03
   0.845E+02 0.810E+02 0.866E+02   -.108E+03 -.104E+03 -.730E+02   0.240E+02 0.230E+02 -.136E+02   -.375E-03 -.433E-03 -.116E-02
   -.846E+02 -.810E+02 -.866E+02   0.109E+03 0.104E+03 0.730E+02   -.240E+02 -.230E+02 0.136E+02   0.411E-03 0.444E-03 0.857E-03
   0.682E+02 0.652E+02 -.111E+03   -.938E+02 -.898E+02 0.106E+03   0.256E+02 0.246E+02 0.549E+01   -.262E-03 -.197E-03 0.884E-03
   -.681E+02 -.653E+02 0.111E+03   0.937E+02 0.899E+02 -.106E+03   -.256E+02 -.246E+02 -.549E+01   0.194E-03 0.113E-03 -.117E-02
   0.850E+02 0.814E+02 0.862E+02   -.109E+03 -.104E+03 -.726E+02   0.240E+02 0.230E+02 -.136E+02   -.404E-03 -.333E-03 -.785E-03
   -.850E+02 -.815E+02 -.863E+02   0.109E+03 0.104E+03 0.726E+02   -.240E+02 -.230E+02 0.136E+02   0.387E-03 0.297E-03 0.108E-02
   -.769E+02 0.722E+02 -.470E+02   0.666E+02 -.581E+02 0.672E+02   0.103E+02 -.142E+02 -.201E+02   0.296E-02 -.292E-02 -.732E-03
   -.689E+02 0.799E+02 0.470E+02   0.551E+02 -.691E+02 -.672E+02   0.137E+02 -.109E+02 0.201E+02   0.309E-02 -.281E-02 0.688E-03
   -.772E+02 0.724E+02 -.480E+02   0.670E+02 -.582E+02 0.682E+02   0.102E+02 -.141E+02 -.202E+02   0.268E-02 -.321E-02 -.669E-03
   -.690E+02 0.802E+02 0.480E+02   0.553E+02 -.694E+02 -.682E+02   0.137E+02 -.108E+02 0.202E+02   0.280E-02 -.309E-02 0.720E-03
   0.770E+02 -.723E+02 0.470E+02   -.668E+02 0.582E+02 -.671E+02   -.102E+02 0.141E+02 0.201E+02   -.294E-02 0.292E-02 0.727E-03
   0.690E+02 -.800E+02 -.470E+02   -.553E+02 0.692E+02 0.671E+02   -.137E+02 0.108E+02 -.201E+02   -.306E-02 0.280E-02 -.679E-03
   0.771E+02 -.722E+02 0.480E+02   -.668E+02 0.581E+02 -.682E+02   -.102E+02 0.142E+02 0.202E+02   -.270E-02 0.321E-02 0.681E-03
   0.689E+02 -.801E+02 -.480E+02   -.552E+02 0.692E+02 0.682E+02   -.137E+02 0.108E+02 -.202E+02   -.282E-02 0.309E-02 -.721E-03
   0.677E+02 0.652E+02 -.111E+03   -.933E+02 -.898E+02 0.106E+03   0.256E+02 0.246E+02 0.549E+01   -.231E-03 -.280E-03 0.903E-03
   -.681E+02 -.649E+02 0.111E+03   0.937E+02 0.894E+02 -.106E+03   -.256E+02 -.245E+02 -.549E+01   0.153E-03 0.210E-03 -.118E-02
   0.846E+02 0.814E+02 0.864E+02   -.109E+03 -.104E+03 -.728E+02   0.240E+02 0.230E+02 -.136E+02   -.376E-03 -.419E-03 -.794E-03
   -.850E+02 -.811E+02 -.864E+02   0.109E+03 0.104E+03 0.728E+02   -.240E+02 -.230E+02 0.136E+02   0.347E-03 0.395E-03 0.109E-02
   0.680E+02 0.648E+02 -.111E+03   -.936E+02 -.893E+02 0.106E+03   0.256E+02 0.245E+02 0.549E+01   -.240E-03 -.148E-03 0.120E-02
   -.676E+02 -.651E+02 0.111E+03   0.932E+02 0.897E+02 -.106E+03   -.256E+02 -.245E+02 -.549E+01   0.298E-03 0.239E-03 -.914E-03
   0.849E+02 0.810E+02 0.865E+02   -.109E+03 -.104E+03 -.729E+02   0.240E+02 0.230E+02 -.136E+02   -.435E-03 -.337E-03 -.110E-02
   -.846E+02 -.813E+02 -.865E+02   0.109E+03 0.104E+03 0.729E+02   -.240E+02 -.230E+02 0.136E+02   0.443E-03 0.381E-03 0.800E-03
   -.768E+02 0.720E+02 -.477E+02   0.665E+02 -.578E+02 0.679E+02   0.103E+02 -.142E+02 -.202E+02   0.300E-02 -.298E-02 -.742E-03
   -.686E+02 0.798E+02 0.477E+02   0.549E+02 -.689E+02 -.679E+02   0.137E+02 -.109E+02 0.202E+02   0.313E-02 -.287E-02 0.694E-03
   -.773E+02 0.726E+02 -.473E+02   0.671E+02 -.585E+02 0.675E+02   0.102E+02 -.141E+02 -.202E+02   0.265E-02 -.315E-02 -.668E-03
   -.692E+02 0.803E+02 0.473E+02   0.556E+02 -.696E+02 -.674E+02   0.136E+02 -.108E+02 0.202E+02   0.277E-02 -.304E-02 0.708E-03
   0.773E+02 -.726E+02 0.475E+02   -.672E+02 0.585E+02 -.677E+02   -.102E+02 0.141E+02 0.202E+02   -.295E-02 0.290E-02 0.709E-03
   0.692E+02 -.804E+02 -.475E+02   -.556E+02 0.696E+02 0.677E+02   -.136E+02 0.108E+02 -.202E+02   -.306E-02 0.279E-02 -.665E-03
   0.767E+02 -.720E+02 0.476E+02   -.664E+02 0.577E+02 -.677E+02   -.103E+02 0.142E+02 0.202E+02   -.271E-02 0.325E-02 0.691E-03
   0.686E+02 -.797E+02 -.476E+02   -.549E+02 0.688E+02 0.677E+02   -.137E+02 0.109E+02 -.202E+02   -.283E-02 0.314E-02 -.744E-03
 -----------------------------------------------------------------------------------------------
   0.586E-04 -.570E-04 -.650E-03   -.924E-13 -.156E-12 0.284E-13   -.132E-03 -.251E-04 0.134E-04   0.154E-04 0.126E-04 -.134E-05
 
 
 POSITION                                       TOTAL-FORCE (eV/Angst)
 -----------------------------------------------------------------------------------
     10.58781     -4.65703     -0.52371         0.000363      0.000306     -0.000292
      6.22817     -1.43336     -8.29400        -0.000349     -0.000324      0.000345
      4.09757     -3.47475     -7.94496         0.000402      0.000344      0.000173
      8.45926     -6.69646     -0.17500        -0.000398     -0.000371     -0.000224
      4.70824      0.81072     -4.41098         0.002157      0.001966     -0.000335
      8.41075     -3.04257     -4.40673        -0.002116     -0.002019      0.000348
      6.27611     -5.08783     -4.05703         0.002156      0.001964     -0.000355
      2.58374     -1.22484     -4.06294        -0.002116     -0.002019      0.000344
      1.75074     -2.02235     -1.14124        -0.000179     -0.001212      0.008483
      7.10853     -4.28967     -6.97873        -0.001589     -0.002563     -0.008023
      9.70804     -1.80020     -1.83235         0.000643      0.001662     -0.004858
      3.41154     -0.43230     -6.98535         0.001429      0.002415      0.004347
      3.26655     -4.26809     -5.02281         0.000543     -0.001919     -0.002098
      9.28740     -5.90010     -3.09716         0.000915     -0.001563      0.002259
      3.83146      3.66816     -5.72185        -0.000876      0.001748      0.000607
      5.59339     -2.04446     -3.09585        -0.000990      0.001639     -0.000725
      5.03595      1.12507     -2.51837        -0.000082     -0.000406      0.004012
      8.08266     -3.35657     -6.29936         0.002050      0.001583     -0.002717
      6.27594     -5.08765     -6.00335        -0.000751     -0.001047     -0.003822
      2.58354     -1.22467     -2.11659         0.002456      0.001973      0.002041
      8.73396     -2.73319     -2.51193        -0.001597     -0.001258     -0.004641
      4.38536      0.50105     -6.30576        -0.000482     -0.000140      0.003208
      2.57882     -1.22985     -6.00983        -0.000775     -0.000470      0.004985
      6.28135     -5.08312     -2.11017        -0.001014     -0.000649     -0.003015
      5.21208      3.04427     -0.94322        -0.000125      0.000879      0.003938
      6.15770     -3.45047     -7.87448        -0.000799      0.000234     -0.003950
      4.65149     -4.89554     -0.23859        -0.003848      0.003544     -0.002341
      2.46106      0.40653     -7.88138        -0.003447      0.003929      0.002353
      7.90615     -5.27540     -7.87489         0.001108     -0.001510     -0.003131
      6.96059      1.21941     -0.94282         0.001641     -0.001000      0.003101
      4.20931     -1.41799     -7.88068         0.002866     -0.002882      0.001665
      6.39961     -6.72017     -0.23929         0.002584     -0.003152     -0.001637
      6.55234     -1.12115     -6.40009         0.001204     -0.001082      0.000151
     10.26202     -4.96757     -2.41762         0.001404     -0.000744      0.000159
      8.45541     -6.69854     -2.12165         0.001177     -0.001108     -0.000175
      4.09982     -3.47100     -5.99831         0.001368     -0.000779     -0.000271
      2.85685      2.73558     -6.40135        -0.001569      0.000781      0.001368
      6.56679     -1.11059     -2.41636        -0.000935      0.001241     -0.001584
      4.76013     -2.84160     -2.12039        -0.001788      0.000572     -0.001192
      0.40436      0.38578     -5.99958        -0.000672      0.001493      0.001497
      6.72734      0.79886     -4.82628        -0.000382      0.001041      0.002672
      8.33629     -5.06034     -3.99142        -0.000841      0.000601     -0.002702
      6.16931     -7.14451     -4.12695        -0.004944      0.004991      0.000106
      4.64311     -1.20603     -3.99302        -0.004959      0.004976     -0.000076
      2.69031      0.83186     -3.99442         0.005136     -0.005467      0.001003
      4.21675     -5.10639     -4.12555         0.004969     -0.005628     -0.000958
      6.39167     -3.03056     -3.99032         0.000193     -0.000605     -0.003932
      4.78254      2.82846     -4.82739         0.000861      0.000035      0.003889
 -----------------------------------------------------------------------------------
    total drift:                               -0.000058     -0.000069     -0.000638


--------------------------------------------------------------------------------------------------------



  FREE ENERGIE OF THE ION-ELECTRON SYSTEM (eV)
  ---------------------------------------------------
  free  energy   TOTEN  =      -415.27101790 eV

  energy  without entropy=     -415.27101790  energy(sigma->0) =     -415.27101790
 


--------------------------------------------------------------------------------------------------------


    POTLOK:  cpu time    0.0292: real time    0.0308


--------------------------------------------------------------------------------------------------------


 writing wavefunctions
     LOOP+:  cpu time 1846.3813: real time 1919.1471
    4ORBIT:  cpu time    0.0000: real time    0.0000
 


 total charge     
 
# of ion       s       p       d       tot
------------------------------------------
    1        2.181   6.223   1.812  10.216
    2        2.181   6.223   1.812  10.216
    3        2.181   6.223   1.813  10.217
    4        2.181   6.223   1.813  10.217
    5        2.181   6.223   1.812  10.216
    6        2.181   6.223   1.812  10.216
    7        2.181   6.223   1.813  10.217
    8        2.181   6.223   1.813  10.217
    9        0.922   1.557   0.000   2.478
   10        0.922   1.557   0.000   2.478
   11        0.922   1.557   0.000   2.479
   12        0.922   1.557   0.000   2.479
   13        0.922   1.557   0.000   2.479
   14        0.922   1.557   0.000   2.479
   15        0.922   1.557   0.000   2.479
   16        0.922   1.557   0.000   2.479
   17        1.562   3.619   0.000   5.181
   18        1.562   3.619   0.000   5.181
   19        1.563   3.619   0.000   5.181
   20        1.563   3.619   0.000   5.181
   21        1.562   3.619   0.000   5.181
   22        1.563   3.619   0.000   5.181
   23        1.563   3.619   0.000   5.181
   24        1.563   3.619   0.000   5.181
   25        1.549   3.619   0.000   5.168
   26        1.549   3.619   0.000   5.168
   27        1.549   3.620   0.000   5.169
   28        1.549   3.620   0.000   5.169
   29        1.549   3.619   0.000   5.168
   30        1.549   3.619   0.000   5.168
   31        1.549   3.620   0.000   5.169
   32        1.549   3.620   0.000   5.169
   33        1.562   3.619   0.000   5.181
   34        1.562   3.619   0.000   5.181
   35        1.563   3.619   0.000   5.181
   36        1.563   3.619   0.000   5.181
   37        1.562   3.619   0.000   5.181
   38        1.562   3.619   0.000   5.181
   39        1.563   3.619   0.000   5.181
   40        1.563   3.619   0.000   5.181
   41        1.549   3.620   0.000   5.169
   42        1.549   3.620   0.000   5.169
   43        1.549   3.619   0.000   5.168
   44        1.549   3.619   0.000   5.168
   45        1.549   3.619   0.000   5.168
   46        1.549   3.619   0.000   5.168
   47        1.549   3.619   0.000   5.169
   48        1.549   3.619   0.000   5.169
--------------------------------------------------
tot         74.607 178.053  14.501 267.161
 


 magnetization (x)
 
# of ion       s       p       d       tot
------------------------------------------
    1        0.004   0.005   0.729   0.737
    2       -0.004  -0.005  -0.729  -0.737
    3        0.004   0.005   0.729   0.737
    4       -0.004  -0.005  -0.729  -0.737
    5        0.004   0.005   0.729   0.737
    6       -0.004  -0.005  -0.729  -0.737
    7        0.004   0.005   0.729   0.737
    8       -0.004  -0.005  -0.729  -0.737
    9       -0.000  -0.000   0.000  -0.000
   10        0.000   0.000   0.000   0.000
   11        0.000   0.000   0.000   0.000
   12       -0.000  -0.000   0.000  -0.000
   13        0.000   0.000   0.000   0.000
   14       -0.000  -0.000   0.000  -0.000
   15       -0.000  -0.000   0.000  -0.000
   16        0.000   0.000   0.000   0.000
   17       -0.000  -0.005   0.000  -0.006
   18        0.000   0.005   0.000   0.006
   19       -0.000  -0.005   0.000  -0.006
   20        0.000   0.005   0.000   0.006
   21        0.000   0.005   0.000   0.006
   22       -0.000  -0.005   0.000  -0.006
   23        0.000   0.005   0.000   0.006
   24       -0.000  -0.005   0.000  -0.006
   25       -0.000   0.000   0.000   0.000
   26        0.000  -0.000   0.000  -0.000
   27        0.000  -0.000   0.000  -0.000
   28       -0.000   0.000   0.000   0.000
   29       -0.000   0.000   0.000   0.000
   30        0.000  -0.000   0.000  -0.000
   31        0.000  -0.000   0.000  -0.000
   32       -0.000   0.000   0.000   0.000
   33        0.000   0.005   0.000   0.006
   34       -0.000  -0.005   0.000  -0.006
   35        0.000   0.005   0.000   0.006
   36       -0.000  -0.005   0.000  -0.006
   37       -0.000  -0.005   0.000  -0.006
   38        0.000   0.005   0.000   0.006
   39       -0.000  -0.005   0.000  -0.006
   40        0.000   0.005   0.000   0.006
   41       -0.000   0.000   0.000   0.000
   42        0.000  -0.000   0.000  -0.000
   43        0.000  -0.000   0.000  -0.000
   44       -0.000   0.000   0.000   0.000
   45       -0.000   0.000   0.000   0.000
   46        0.000  -0.000   0.000  -0.000
   47        0.000  -0.000   0.000  -0.000
   48       -0.000   0.000   0.000   0.000
--------------------------------------------------
tot          0.000   0.000  -0.000   0.000
 
 BZINTS: Fermi energy:  6.461103;328.000000 electrons
         Band energy:***********;  BLOECHL correction:  0.000000

 total amount of memory used by VASP MPI-rank0   380605. kBytes
=======================================================================

   base      :      30000. kBytes
   nonl-proj :      20987. kBytes
   fftplans  :       2236. kBytes
   grid      :       5857. kBytes
   one-center:         62. kBytes
   wavefun   :     321463. kBytes
 
  
  
 General timing and accounting informations for this job:
 ========================================================
  
                  Total CPU time used (sec):     1952.647
                            User time (sec):     1906.584
                          System time (sec):       46.063
                         Elapsed time (sec):     2032.540
  
                   Maximum memory used (kb):      571288.
                   Average memory used (kb):           0.
  
                          Minor page faults:       180519
                          Major page faults:            0
                 Voluntary context switches:        16207
